
                                 *****************
                                 * O   R   C   A *
                                 *****************

           --- An Ab Initio, DFT and Semiempirical electronic structure package ---

                  #######################################################
                  #                        -***-                        #
                  #          Department of theory and spectroscopy      #
                  #               Directorship: Frank Neese             #
                  #        Max Planck Institute fuer Kohlenforschung    #
                  #                Kaiser Wilhelm Platz 1               #
                  #                 D-45470 Muelheim/Ruhr               #
                  #                      Germany                        #
                  #                                                     #
                  #                  All rights reserved                #
                  #                        -***-                        #
                  #######################################################


                         Program Version 4.2.0 -  RELEASE  -


 With contributions from (in alphabetic order):
   Daniel Aravena         : Magnetic Suceptibility
   Michael Atanasov       : Ab Initio Ligand Field Theory (pilot matlab implementation)
   Alexander A. Auer      : GIAO ZORA, VPT2
   Ute Becker             : Parallelization
   Giovanni Bistoni       : ED, misc. LED, open-shell LED, HFLED
   Martin Brehm           : Molecular dynamics
   Dmytro Bykov           : SCF Hessian
   Vijay G. Chilkuri      : MRCI spin determinant printing, contributions to CSF-ICE
   Dipayan Datta          : RHF DLPNO-CCSD density
   Achintya Kumar Dutta   : EOM-CC, STEOM-CC
   Dmitry Ganyushin       : Spin-Orbit,Spin-Spin,Magnetic field MRCI
   Miquel Garcia          : C-PCM Hessian, Gaussian charge scheme
   Yang Guo               : DLPNO-NEVPT2, CIM, IAO-localization
   Andreas Hansen         : Spin unrestricted coupled pair/coupled cluster methods
   Benjamin Helmich-Paris : CASSCF linear response (MC-RPA)
   Lee Huntington         : MR-EOM, pCC
   Robert Izsak           : Overlap fitted RIJCOSX, COSX-SCS-MP3, EOM
   Christian Kollmar      : KDIIS, OOCD, Brueckner-CCSD(T), CCSD density
   Simone Kossmann        : Meta GGA functionals, TD-DFT gradient, OOMP2, MP2 Hessian
   Martin Krupicka        : AUTO-CI
   Lucas Lang             : DCDCAS
   Dagmar Lenk            : GEPOL surface, SMD
   Dimitrios Liakos       : Extrapolation schemes; Compound Job, initial MDCI parallelization
   Dimitrios Manganas     : Further ROCIS development; embedding schemes
   Dimitrios Pantazis     : SARC Basis sets
   Taras Petrenko         : DFT Hessian,TD-DFT gradient, ASA, ECA, R-Raman, ABS, FL, XAS/XES, NRVS
   Peter Pinski           : DLPNO-MP2, DLPNO-MP2 Gradient
   Christoph Reimann      : Effective Core Potentials
   Marius Retegan         : Local ZFS, SOC
   Christoph Riplinger    : Optimizer, TS searches, QM/MM, DLPNO-CCSD(T), (RO)-DLPNO pert. Triples
   Tobias Risthaus        : Range-separated hybrids, TD-DFT gradient, RPA, STAB
   Michael Roemelt        : Original ROCIS implementation
   Masaaki Saitow         : Open-shell DLPNO-CCSD energy and density
   Barbara Sandhoefer     : DKH picture change effects
   Avijit Sen             : IP-ROCIS
   Kantharuban Sivalingam : CASSCF convergence, NEVPT2, FIC-MRCI
   Bernardo de Souza      : ESD, SOC TD-DFT
   Georgi Stoychev        : AutoAux, RI-MP2 NMR
   Willem Van den Heuvel  : Paramagnetic NMR
   Boris Wezisla          : Elementary symmetry handling
   Frank Wennmohs         : Technical directorship


 We gratefully acknowledge several colleagues who have allowed us to
 interface, adapt or use parts of their codes:
   Stefan Grimme, W. Hujo, H. Kruse,             : VdW corrections, initial TS optimization,
                  C. Bannwarth                     DFT functionals, gCP, sTDA/sTD-DF
   Ed Valeev, F. Pavosevic, A. Kumar             : LibInt (2-el integral package), F12 methods
   Garnet Chan, S. Sharma, J. Yang, R. Olivares  : DMRG
   Ulf Ekstrom                                   : XCFun DFT Library
   Mihaly Kallay                                 : mrcc  (arbitrary order and MRCC methods)
   Andreas Klamt, Michael Diedenhofen            : otool_cosmo (COSMO solvation model)
   Jiri Pittner, Ondrej Demel                    : Mk-CCSD
   Frank Weinhold                                : gennbo (NPA and NBO analysis)
   Christopher J. Cramer and Donald G. Truhlar   : smd solvation model
   Lars Goerigk                                  : TD-DFT with DH, B97 family of functionals
   V. Asgeirsson, H. Jonsson                     : NEB implementation
   FAccTs GmbH                                   : IRC, NEB, NEB-TS, Multilevel, MM, QM/MM, CI optimization
   S Lehtola, MJT Oliveira, MAL Marques          : LibXC Library


 Your calculation uses the libint2 library for the computation of 2-el integrals
 For citations please refer to: http://libint.valeyev.net

 Your ORCA version has been built with support for libXC version: 4.2.3
 For citations please refer to: https://tddft.org/programs/libxc/

 This ORCA versions uses:
   CBLAS   interface :  Fast vector & matrix operations
   LAPACKE interface :  Fast linear algebra routines
   SCALAPACK package :  Parallel linear algebra routines


----- Orbital basis set information -----
Your calculation utilizes the basis: 6-31G
   H-He, Li-Ne : W. J. Hehre, R. Ditchfield and J.A. Pople, J. Chem. Phys. 56, 2257 (1972).
                 Note: He and Ne are unpublished basis sets taken from the Gaussian program.
                 Note: Li and B from J. D. Dill and J. A. Pople, J. Chem. Phys. 62, 2921 (1975).
   Na - Ar     : M. M. Francl, W. J. Pietro, W. J. Hehre, J. S. Binkley, M. S. Gordon, 
                 D. J. DeFrees and J. A. Pople, J. Chem. Phys. 77, 3654 (1982).
   K - Zn      : V. A. Rassolov, J. A. Pople, M. A. Ratner, and T. L. Windus, J. Chem. Phys. 109, 1223 (1998).

================================================================================
                                        WARNINGS
                       Please study these warnings very carefully!
================================================================================


WARNING: Geometry Optimization
  ===> : Switching off AutoStart
         For restart on a previous wavefunction, please use MOREAD

INFO   : the flag for use of LIBINT has been found!

================================================================================
                                       INPUT FILE
================================================================================
NAME = project_8052/ensemble_270_30.inp
|  1> # Test redundant internal optimization
|  2> #
|  3> ! RKS B3LYP  Opt TightSCF SmallPrint
|  4> 
|  5> %basis
|  6>         Basis "6-31G"
|  7> end
|  8> 
|  9> %geom
| 10> Constraints
| 11> { D 4  0  15  12  270.0   C } # D for Dihedral angle
| 12> { D 0  15  12  16  30.0   C } # D for Dihedral angle
| 13> { D 0  4  3  2   C } # D for Dihedral angle
| 14> { D 4  3  2  1   C } # D for Dihedral angle
| 15> { D 3  2  1  0   C } # D for Dihedral angle
| 16> { D 2  1  0  4   C } # D for Dihedral angle
| 17> { D 1  0  4  3   C } # D for Dihedral angle
| 18> { D 16  20  19  18   C } # D for Dihedral angle
| 19> { D 20  19  18  17   C } # D for Dihedral angle
| 20> { D 19  18  17  16   C } # D for Dihedral angle
| 21> { D 18  17  16  20   C } # D for Dihedral angle
| 22> { D 17  16  20  19   C } # D for Dihedral angle
| 23> { D 15  12  16  20   C } # D for Dihedral angle
| 24> end
| 25> end
| 26> 
| 27> 
| 28> #%pal 
| 29> #nprocs 8
| 30> #end
| 31> 
| 32> * xyz 0 1
| 33> C  -21.048   26.222   46.251
| 34> C  -20.361   27.558   45.944
| 35> C  -20.329   28.222   47.341
| 36> C  -20.110   27.022   48.296
| 37> O  -20.473   25.807   47.535
| 38> H  -20.833   25.428   45.533
| 39> H  -19.344   27.382   45.576
| 40> H  -20.898   28.157   45.201
| 41> H  -19.543   28.978   47.434
| 42> H  -21.289   28.710   47.548
| 43> H  -20.733   27.082   49.195
| 44> H  -19.064   26.913   48.597
| 45> C  -23.420   25.119   46.072
| 46> H  -24.348   25.147   46.656
| 47> H  -23.684   25.077   45.008
| 48> O  -22.586   26.394   46.375
| 49> C  -22.662   23.808   46.423
| 50> C  -23.465   22.572   46.005
| 51> C  -23.181   22.512   44.486
| 52> C  -21.716   23.006   44.382
| 53> O  -21.420   23.711   45.648
| 54> H  -22.380   23.829   47.478
| 55> O  -22.909   21.309   46.718
| 56> H  -24.533   22.655   46.234
| 57> H  -23.313   21.508   44.068
| 58> H  -23.856   23.189   43.949
| 59> H  -21.564   23.695   43.544
| 60> H  -21.002   22.182   44.298
| 61> H  -21.840   21.205   46.501
| 62> *
| 63> 
| 64>                          ****END OF INPUT****
================================================================================

                       *****************************
                       * Geometry Optimization Run *
                       *****************************

Geometry optimization settings:
Update method            Update   .... BFGS
Choice of coordinates    CoordSys .... Z-matrix Internals
Initial Hessian          InHess   .... Almoef's Model

Convergence Tolerances:
Energy Change            TolE     ....  5.0000e-06 Eh
Max. Gradient            TolMAXG  ....  3.0000e-04 Eh/bohr
RMS Gradient             TolRMSG  ....  1.0000e-04 Eh/bohr
Max. Displacement        TolMAXD  ....  4.0000e-03 bohr
RMS Displacement         TolRMSD  ....  2.0000e-03 bohr
Strict Convergence                ....  False
------------------------------------------------------------------------------
                        ORCA OPTIMIZATION COORDINATE SETUP
------------------------------------------------------------------------------

The optimization will be done in new redundant internal coordinates
Making redundant internal coordinates   ...  (new redundants) done
Evaluating the initial hessian          ...  (Almloef) done
Evaluating the coordinates              ...  done
Calculating the B-matrix                .... done
Calculating the G-matrix                .... done
Diagonalizing the G-matrix              .... done
Imposing constraints:
 Iter   0:  RMS(Cart)=    0.0001045766 RMS(Int)=    0.0000546003
 Iter   1:  RMS(Cart)=    0.0000534372 RMS(Int)=    0.0000296669
 Iter   2:  RMS(Cart)=    0.0000290332 RMS(Int)=    0.0000175568
 Iter   3:  RMS(Cart)=    0.0000168088 RMS(Int)=    0.0000115758
 Iter   4:  RMS(Cart)=    0.0000103171 RMS(Int)=    0.0000085653
 Iter   5:  RMS(Cart)=    0.0000066519 RMS(Int)=    0.0000070069
 Iter   6:  RMS(Cart)=    0.0000044628 RMS(Int)=    0.0000061603
 Iter   7:  RMS(Cart)=    0.0000030956 RMS(Int)=    0.0000056639
 Iter   8:  RMS(Cart)=    0.0000022161 RMS(Int)=    0.0000053420
 Iter   9:  RMS(Cart)=    0.0000016425 RMS(Int)=    0.0000051085
 Iter  10:  RMS(Cart)=    0.0000012690 RMS(Int)=    0.0000049214
 Iter  11:  RMS(Cart)=    0.0000010285 RMS(Int)=    0.0000047597
 Iter  12:  RMS(Cart)=    0.0000008753 RMS(Int)=    0.0000046129
 Iter  13:  RMS(Cart)=    0.0000007776 RMS(Int)=    0.0000044757
 Iter  14:  RMS(Cart)=    0.0000007135 RMS(Int)=    0.0000043453
 Iter  15:  RMS(Cart)=    0.0000006693 RMS(Int)=    0.0000042202
 Iter  16:  RMS(Cart)=    0.0000006363 RMS(Int)=    0.0000040998
 Iter  17:  RMS(Cart)=    0.0000006099 RMS(Int)=    0.0000039834
 Iter  18:  RMS(Cart)=    0.0000005875 RMS(Int)=    0.0000038709
 Iter  19:  RMS(Cart)=    0.0000005673 RMS(Int)=    0.0000037620
 Iter  20:  RMS(Cart)=    0.0000005489 RMS(Int)=    0.0000036565
 Iter  21:  RMS(Cart)=    0.0000005315 RMS(Int)=    0.0000035543
 Iter  22:  RMS(Cart)=    0.0000005149 RMS(Int)=    0.0000034553
 Iter  23:  RMS(Cart)=    0.0000004992 RMS(Int)=    0.0000033594
 Iter  24:  RMS(Cart)=    0.0000004840 RMS(Int)=    0.0000032664
 Iter  25:  RMS(Cart)=    0.0000004694 RMS(Int)=    0.0000031763
 Iter  26:  RMS(Cart)=    0.0000004553 RMS(Int)=    0.0000030890
 Iter  27:  RMS(Cart)=    0.0000004416 RMS(Int)=    0.0000030044
 Iter  28:  RMS(Cart)=    0.0000004285 RMS(Int)=    0.0000029224
 Iter  29:  RMS(Cart)=    0.0000004158 RMS(Int)=    0.0000028429
 Iter  30:  RMS(Cart)=    0.0000004035 RMS(Int)=    0.0000027658
 Iter  31:  RMS(Cart)=    0.0000003916 RMS(Int)=    0.0000026910
 Iter  32:  RMS(Cart)=    0.0000003801 RMS(Int)=    0.0000026185
 Iter  33:  RMS(Cart)=    0.0000003689 RMS(Int)=    0.0000025482
 Iter  34:  RMS(Cart)=    0.0000003581 RMS(Int)=    0.0000024801
 Iter  35:  RMS(Cart)=    0.0000003476 RMS(Int)=    0.0000024140
 Iter  36:  RMS(Cart)=    0.0000003375 RMS(Int)=    0.0000023499
 Iter  37:  RMS(Cart)=    0.0000003278 RMS(Int)=    0.0000022877
 Iter  38:  RMS(Cart)=    0.0000003182 RMS(Int)=    0.0000022273
 Iter  39:  RMS(Cart)=    0.0000003090 RMS(Int)=    0.0000021688
 Iter  40:  RMS(Cart)=    0.0000003002 RMS(Int)=    0.0000021120
 Iter  41:  RMS(Cart)=    0.0000002915 RMS(Int)=    0.0000020570
 Iter  42:  RMS(Cart)=    0.0000002832 RMS(Int)=    0.0000020035
 Iter  43:  RMS(Cart)=    0.0000002751 RMS(Int)=    0.0000019516
 Iter  44:  RMS(Cart)=    0.0000002672 RMS(Int)=    0.0000019013
 Iter  45:  RMS(Cart)=    0.0000002596 RMS(Int)=    0.0000018525
 Iter  46:  RMS(Cart)=    0.0000002523 RMS(Int)=    0.0000018051
 Iter  47:  RMS(Cart)=    0.0000002452 RMS(Int)=    0.0000017590
 Iter  48:  RMS(Cart)=    0.0000002382 RMS(Int)=    0.0000017144
 Iter  49:  RMS(Cart)=    0.0000002315 RMS(Int)=    0.0000016710
 Iter  50:  RMS(Cart)=    0.0000002251 RMS(Int)=    0.0000016289
 Iter  51:  RMS(Cart)=    0.0000002187 RMS(Int)=    0.0000015880
 Iter  52:  RMS(Cart)=    0.0000002127 RMS(Int)=    0.0000015483
 Iter  53:  RMS(Cart)=    0.0000002067 RMS(Int)=    0.0000015098
 Iter  54:  RMS(Cart)=    0.0000002010 RMS(Int)=    0.0000014724
 Iter  55:  RMS(Cart)=    0.0000001954 RMS(Int)=    0.0000014361
 Iter  56:  RMS(Cart)=    0.0000001900 RMS(Int)=    0.0000014008
 Iter  57:  RMS(Cart)=    0.0000001848 RMS(Int)=    0.0000013665
 Iter  58:  RMS(Cart)=    0.0000001798 RMS(Int)=    0.0000013332
 Iter  59:  RMS(Cart)=    0.0000001748 RMS(Int)=    0.0000013009
 Iter  60:  RMS(Cart)=    0.0000001700 RMS(Int)=    0.0000012694
 Iter  61:  RMS(Cart)=    0.0000001654 RMS(Int)=    0.0000012389
 Iter  62:  RMS(Cart)=    0.0000001610 RMS(Int)=    0.0000012093
 Iter  63:  RMS(Cart)=    0.0000001566 RMS(Int)=    0.0000011805
 Iter  64:  RMS(Cart)=    0.0000001523 RMS(Int)=    0.0000011525
 Iter  65:  RMS(Cart)=    0.0000001482 RMS(Int)=    0.0000011253
 Iter  66:  RMS(Cart)=    0.0000001443 RMS(Int)=    0.0000010988
 Iter  67:  RMS(Cart)=    0.0000001403 RMS(Int)=    0.0000010731
 Iter  68:  RMS(Cart)=    0.0000001367 RMS(Int)=    0.0000010481
 Iter  69:  RMS(Cart)=    0.0000001330 RMS(Int)=    0.0000010239
 Iter  70:  RMS(Cart)=    0.0000001296 RMS(Int)=    0.0000010003
 Iter  71:  RMS(Cart)=    0.0000001261 RMS(Int)=    0.0000009773
 Iter  72:  RMS(Cart)=    0.0000001228 RMS(Int)=    0.0000009550
 Iter  73:  RMS(Cart)=    0.0000001195 RMS(Int)=    0.0000009333
 Iter  74:  RMS(Cart)=    0.0000001164 RMS(Int)=    0.0000009122
 Iter  75:  RMS(Cart)=    0.0000001133 RMS(Int)=    0.0000008917
 Iter  76:  RMS(Cart)=    0.0000001104 RMS(Int)=    0.0000008718
 Iter  77:  RMS(Cart)=    0.0000001075 RMS(Int)=    0.0000008524
 Iter  78:  RMS(Cart)=    0.0000001048 RMS(Int)=    0.0000008335
 Iter  79:  RMS(Cart)=    0.0000001020 RMS(Int)=    0.0000008152
 Iter  80:  RMS(Cart)=    0.0000000994 RMS(Int)=    0.0000007973
 Iter  81:  RMS(Cart)=    0.0000000968 RMS(Int)=    0.0000007799
 Iter  82:  RMS(Cart)=    0.0000000944 RMS(Int)=    0.0000007630
 Iter  83:  RMS(Cart)=    0.0000000920 RMS(Int)=    0.0000007466
 Iter  84:  RMS(Cart)=    0.0000000896 RMS(Int)=    0.0000007306
 Iter  85:  RMS(Cart)=    0.0000000873 RMS(Int)=    0.0000007150
 Iter  86:  RMS(Cart)=    0.0000000852 RMS(Int)=    0.0000006998
 Iter  87:  RMS(Cart)=    0.0000000830 RMS(Int)=    0.0000006851
 Iter  88:  RMS(Cart)=    0.0000000810 RMS(Int)=    0.0000006707
 Iter  89:  RMS(Cart)=    0.0000000789 RMS(Int)=    0.0000006567
 Iter  90:  RMS(Cart)=    0.0000000768 RMS(Int)=    0.0000006431
 Iter  91:  RMS(Cart)=    0.0000000750 RMS(Int)=    0.0000006299
 Iter  92:  RMS(Cart)=    0.0000000732 RMS(Int)=    0.0000006170
 Iter  93:  RMS(Cart)=    0.0000000713 RMS(Int)=    0.0000006044
 Iter  94:  RMS(Cart)=    0.0000000696 RMS(Int)=    0.0000005922
 Iter  95:  RMS(Cart)=    0.0000000679 RMS(Int)=    0.0000005802
 Iter  96:  RMS(Cart)=    0.0000000662 RMS(Int)=    0.0000005687
 Iter  97:  RMS(Cart)=    0.0000000647 RMS(Int)=    0.0000005573
 Iter  98:  RMS(Cart)=    0.0000000631 RMS(Int)=    0.0000005463
 Iter  99:  RMS(Cart)=    0.0000000615 RMS(Int)=    0.0000005356
 RMS(Cart) too big - taking linear step, building new B-matrix and trying again
Imposing constraints:
 Iter   0:  RMS(Cart)=    0.0000534367 RMS(Int)=    0.0000296668
 Iter   1:  RMS(Cart)=    0.0000290332 RMS(Int)=    0.0000175566
 Iter   2:  RMS(Cart)=    0.0000168089 RMS(Int)=    0.0000115756
 Iter   3:  RMS(Cart)=    0.0000103171 RMS(Int)=    0.0000085652
 Iter   4:  RMS(Cart)=    0.0000066518 RMS(Int)=    0.0000070068
 Iter   5:  RMS(Cart)=    0.0000044628 RMS(Int)=    0.0000061602
 Iter   6:  RMS(Cart)=    0.0000030956 RMS(Int)=    0.0000056639
 Iter   7:  RMS(Cart)=    0.0000022160 RMS(Int)=    0.0000053419
 Iter   8:  RMS(Cart)=    0.0000016425 RMS(Int)=    0.0000051085
 Iter   9:  RMS(Cart)=    0.0000012690 RMS(Int)=    0.0000049214
 Iter  10:  RMS(Cart)=    0.0000010284 RMS(Int)=    0.0000047596
 Iter  11:  RMS(Cart)=    0.0000008753 RMS(Int)=    0.0000046128
 Iter  12:  RMS(Cart)=    0.0000007776 RMS(Int)=    0.0000044756
 Iter  13:  RMS(Cart)=    0.0000007136 RMS(Int)=    0.0000043452
 Iter  14:  RMS(Cart)=    0.0000006693 RMS(Int)=    0.0000042202
 Iter  15:  RMS(Cart)=    0.0000006363 RMS(Int)=    0.0000040997
 Iter  16:  RMS(Cart)=    0.0000006100 RMS(Int)=    0.0000039834
 Iter  17:  RMS(Cart)=    0.0000005875 RMS(Int)=    0.0000038708
 Iter  18:  RMS(Cart)=    0.0000005674 RMS(Int)=    0.0000037619
 Iter  19:  RMS(Cart)=    0.0000005488 RMS(Int)=    0.0000036564
 Iter  20:  RMS(Cart)=    0.0000005314 RMS(Int)=    0.0000035542
 Iter  21:  RMS(Cart)=    0.0000005150 RMS(Int)=    0.0000034552
 Iter  22:  RMS(Cart)=    0.0000004991 RMS(Int)=    0.0000033593
 Iter  23:  RMS(Cart)=    0.0000004840 RMS(Int)=    0.0000032663
 Iter  24:  RMS(Cart)=    0.0000004694 RMS(Int)=    0.0000031763
 Iter  25:  RMS(Cart)=    0.0000004553 RMS(Int)=    0.0000030890
 Iter  26:  RMS(Cart)=    0.0000004416 RMS(Int)=    0.0000030043
 Iter  27:  RMS(Cart)=    0.0000004285 RMS(Int)=    0.0000029223
 Iter  28:  RMS(Cart)=    0.0000004158 RMS(Int)=    0.0000028428
 Iter  29:  RMS(Cart)=    0.0000004035 RMS(Int)=    0.0000027657
 Iter  30:  RMS(Cart)=    0.0000003916 RMS(Int)=    0.0000026909
 Iter  31:  RMS(Cart)=    0.0000003801 RMS(Int)=    0.0000026184
 Iter  32:  RMS(Cart)=    0.0000003689 RMS(Int)=    0.0000025482
 Iter  33:  RMS(Cart)=    0.0000003581 RMS(Int)=    0.0000024800
 Iter  34:  RMS(Cart)=    0.0000003476 RMS(Int)=    0.0000024139
 Iter  35:  RMS(Cart)=    0.0000003375 RMS(Int)=    0.0000023498
 Iter  36:  RMS(Cart)=    0.0000003277 RMS(Int)=    0.0000022876
 Iter  37:  RMS(Cart)=    0.0000003182 RMS(Int)=    0.0000022273
 Iter  38:  RMS(Cart)=    0.0000003090 RMS(Int)=    0.0000021687
 Iter  39:  RMS(Cart)=    0.0000003001 RMS(Int)=    0.0000021120
 Iter  40:  RMS(Cart)=    0.0000002915 RMS(Int)=    0.0000020569
 Iter  41:  RMS(Cart)=    0.0000002832 RMS(Int)=    0.0000020034
 Iter  42:  RMS(Cart)=    0.0000002751 RMS(Int)=    0.0000019516
 Iter  43:  RMS(Cart)=    0.0000002672 RMS(Int)=    0.0000019012
 Iter  44:  RMS(Cart)=    0.0000002596 RMS(Int)=    0.0000018524
 Iter  45:  RMS(Cart)=    0.0000002523 RMS(Int)=    0.0000018050
 Iter  46:  RMS(Cart)=    0.0000002451 RMS(Int)=    0.0000017590
 Iter  47:  RMS(Cart)=    0.0000002383 RMS(Int)=    0.0000017143
 Iter  48:  RMS(Cart)=    0.0000002315 RMS(Int)=    0.0000016709
 Iter  49:  RMS(Cart)=    0.0000002250 RMS(Int)=    0.0000016288
 Iter  50:  RMS(Cart)=    0.0000002187 RMS(Int)=    0.0000015880
 Iter  51:  RMS(Cart)=    0.0000002126 RMS(Int)=    0.0000015483
 Iter  52:  RMS(Cart)=    0.0000002067 RMS(Int)=    0.0000015098
 Iter  53:  RMS(Cart)=    0.0000002010 RMS(Int)=    0.0000014723
 Iter  54:  RMS(Cart)=    0.0000001954 RMS(Int)=    0.0000014360
 Iter  55:  RMS(Cart)=    0.0000001901 RMS(Int)=    0.0000014007
 Iter  56:  RMS(Cart)=    0.0000001848 RMS(Int)=    0.0000013665
 Iter  57:  RMS(Cart)=    0.0000001797 RMS(Int)=    0.0000013332
 Iter  58:  RMS(Cart)=    0.0000001748 RMS(Int)=    0.0000013008
 Iter  59:  RMS(Cart)=    0.0000001700 RMS(Int)=    0.0000012694
 Iter  60:  RMS(Cart)=    0.0000001654 RMS(Int)=    0.0000012389
 Iter  61:  RMS(Cart)=    0.0000001609 RMS(Int)=    0.0000012092
 Iter  62:  RMS(Cart)=    0.0000001565 RMS(Int)=    0.0000011804
 Iter  63:  RMS(Cart)=    0.0000001523 RMS(Int)=    0.0000011524
 Iter  64:  RMS(Cart)=    0.0000001483 RMS(Int)=    0.0000011252
 Iter  65:  RMS(Cart)=    0.0000001443 RMS(Int)=    0.0000010988
 Iter  66:  RMS(Cart)=    0.0000001403 RMS(Int)=    0.0000010731
 Iter  67:  RMS(Cart)=    0.0000001366 RMS(Int)=    0.0000010481
 Iter  68:  RMS(Cart)=    0.0000001331 RMS(Int)=    0.0000010238
 Iter  69:  RMS(Cart)=    0.0000001295 RMS(Int)=    0.0000010002
 Iter  70:  RMS(Cart)=    0.0000001261 RMS(Int)=    0.0000009773
CONVERGED
Small eigenvalue found = 4.801e-03
Small eigenvalue found = 1.564e-02
Small eigenvalue found = 1.986e-02
The first mode is                       ....   91
The number of degrees of freedom        ....   81
Storing new coordinates                 .... done

    -----------------------------------------------------------------
                    Redundant Internal Coordinates


    -----------------------------------------------------------------
         Definition                    Initial Value    Approx d2E/dq
    -----------------------------------------------------------------
      1. B(C   1,C   0)                  1.5333         0.369027   
      2. B(C   2,C   1)                  1.5471         0.350825   
      3. B(C   3,C   2)                  1.5492         0.348147   
      4. B(O   4,C   0)                  1.4668         0.422031   
      5. B(O   4,C   3)                  1.4789         0.403699   
      6. B(H   5,C   0)                  1.0919         0.357632   
      7. B(H   6,C   1)                  1.0958         0.352561   
      8. B(H   7,C   1)                  1.0951         0.353431   
      9. B(H   8,C   2)                  1.0945         0.354166   
     10. B(H   9,C   2)                  1.0966         0.351438   
     11. B(H  10,C   3)                  1.0954         0.353010   
     12. B(H  11,C   3)                  1.0939         0.354989   
     13. B(H  13,C  12)                  1.0968         0.351184   
     14. B(H  14,C  12)                  1.0971         0.350872   
     15. B(O  15,C   0)                  1.5525         0.307993   
     16. B(O  15,C  12)                  1.5534         0.307053   
     17. B(C  16,C  12)                  1.5545         0.341414   
     18. B(C  17,C  16)                  1.5321         0.370749   
     19. B(C  18,C  17)                  1.5465         0.351622   
     20. B(C  19,C  18)                  1.5495         0.347697   
     21. B(O  20,C  16)                  1.4672         0.421454   
     22. B(O  20,C  19)                  1.4790         0.403557   
     23. B(H  21,C  16)                  1.0922         0.357148   
     24. B(O  22,C  17)                  1.5533         0.307167   
     25. B(H  23,C  17)                  1.0954         0.352996   
     26. B(H  24,C  18)                  1.0955         0.352871   
     27. B(H  25,C  18)                  1.0965         0.351597   
     28. B(H  26,C  19)                  1.0955         0.352928   
     29. B(H  27,C  19)                  1.0935         0.355448   
     30. B(H  28,O  22)                  1.0957         0.315782   
     31. A(O   4,C   0,H   5)          107.0162         0.328541   
     32. A(C   1,C   0,O  15)          111.3066         0.348740   
     33. A(C   1,C   0,O   4)          104.2510         0.367935   
     34. A(O   4,C   0,O  15)          110.4721         0.354548   
     35. A(C   1,C   0,H   5)          114.4411         0.323302   
     36. A(H   5,C   0,O  15)          109.1536         0.312058   
     37. A(C   0,C   1,C   2)          101.6782         0.358729   
     38. A(C   2,C   1,H   7)          112.8335         0.320016   
     39. A(C   2,C   1,H   6)          110.6701         0.319888   
     40. A(C   0,C   1,H   6)          110.0681         0.322546   
     41. A(H   6,C   1,H   7)          108.3679         0.289027   
     42. A(C   0,C   1,H   7)          113.1246         0.322677   
     43. A(C   1,C   2,H   8)          112.8312         0.320125   
     44. A(C   1,C   2,C   3)          103.1288         0.355196   
     45. A(C   1,C   2,H   9)          110.0794         0.319721   
     46. A(C   3,C   2,H   9)          110.6147         0.319321   
     47. A(C   3,C   2,H   8)          112.4031         0.319725   
     48. A(H   8,C   2,H   9)          107.7732         0.288977   
     49. A(O   4,C   3,H  10)          109.1301         0.325449   
     50. A(C   2,C   3,H  10)          112.5255         0.319554   
     51. A(C   2,C   3,O   4)          106.5266         0.361529   
     52. A(O   4,C   3,H  11)          107.1240         0.325748   
     53. A(H  10,C   3,H  11)          108.8727         0.289284   
     54. A(C   2,C   3,H  11)          112.4569         0.319846   
     55. A(C   0,O   4,C   3)          108.3126         0.371320   
     56. A(H  14,C  12,C  16)          107.6938         0.318222   
     57. A(H  13,C  12,H  14)          108.2868         0.288521   
     58. A(H  13,C  12,O  15)          109.2334         0.310987   
     59. A(H  14,C  12,O  15)          110.4768         0.310942   
     60. A(O  15,C  12,C  16)          112.7292         0.344032   
     61. A(H  13,C  12,C  16)          108.2993         0.318268   
     62. A(C   0,O  15,C  12)          115.1729         0.336104   
     63. A(C  12,C  16,C  17)          111.2963         0.357356   
     64. A(C  12,C  16,O  20)          110.4425         0.362983   
     65. A(C  17,C  16,O  20)          104.2543         0.368143   
     66. A(C  12,C  16,H  21)          109.1345         0.319143   
     67. A(C  17,C  16,H  21)          114.4789         0.323477   
     68. A(O  20,C  16,H  21)          107.0340         0.328394   
     69. A(C  16,C  17,C  18)          101.7146         0.359152   
     70. A(C  16,C  17,O  22)          110.0679         0.348856   
     71. A(C  18,C  17,O  22)          110.7071         0.345760   
     72. A(C  16,C  17,H  23)          113.1315         0.322858   
     73. A(C  18,C  17,H  23)          112.7876         0.320071   
     74. A(O  22,C  17,H  23)          108.3391         0.311265   
     75. A(C  17,C  18,C  19)          103.1306         0.355255   
     76. A(C  17,C  18,H  24)          112.8428         0.320052   
     77. A(C  19,C  18,H  24)          112.3635         0.319466   
     78. A(C  17,C  18,H  25)          110.1227         0.319863   
     79. A(C  19,C  18,H  25)          110.6283         0.319277   
     80. A(H  24,C  18,H  25)          107.7462         0.288831   
     81. A(C  18,C  19,O  20)          106.4833         0.361428   
     82. A(C  18,C  19,H  26)          112.5218         0.319474   
     83. A(O  20,C  19,H  26)          109.1005         0.325417   
     84. A(C  18,C  19,H  27)          112.4721         0.319846   
     85. A(O  20,C  19,H  27)          107.1133         0.325798   
     86. A(H  26,C  19,H  27)          108.9395         0.289332   
     87. A(C  16,O  20,C  19)          108.3160         0.371210   
     88. A(C  17,O  22,H  28)          109.6020         0.303205   
     89. D(H   7,C   1,C   0,H   5)     82.1537         0.010890   
     90. D(C   2,C   1,C   0,O  15)     79.0890         0.010890   
     91. D(H   7,C   1,C   0,O  15)    -42.1859         0.010890   
     92. D(H   6,C   1,C   0,O   4)     77.3244         0.010890   
     93. D(H   6,C   1,C   0,O  15)   -163.5720         0.010890   
     94. D(H   6,C   1,C   0,H   5)    -39.2325         0.010890   
     95. D(H   7,C   1,C   0,O   4)   -161.2894         0.010890   
     96. D(C   2,C   1,C   0,O   4)    -40.0146         0.010890 C 
     97. D(C   2,C   1,C   0,H   5)   -156.5715         0.010890   
     98. D(H   9,C   2,C   1,H   6)    160.0777         0.009912   
     99. D(H   8,C   2,C   1,C   0)    156.5478         0.009912   
    100. D(H   8,C   2,C   1,H   6)     39.6451         0.009912   
    101. D(C   3,C   2,C   1,C   0)     35.0268         0.009912 C 
    102. D(H   8,C   2,C   1,H   7)    -81.9750         0.009912   
    103. D(H   9,C   2,C   1,C   0)    -83.0196         0.009912   
    104. D(C   3,C   2,C   1,H   6)    -81.8759         0.009912   
    105. D(H   9,C   2,C   1,H   7)     38.4577         0.009912   
    106. D(C   3,C   2,C   1,H   7)    156.5040         0.009912   
    107. D(H  11,C   3,C   2,H   9)   -143.4626         0.009774   
    108. D(O   4,C   3,C   2,H   8)   -140.0068         0.009774   
    109. D(O   4,C   3,C   2,H   9)     99.4741         0.009774   
    110. D(H  10,C   3,C   2,C   1)   -137.7431         0.009774   
    111. D(H  10,C   3,C   2,H   8)    100.4467         0.009774   
    112. D(H  10,C   3,C   2,H   9)    -20.0723         0.009774   
    113. D(H  11,C   3,C   2,C   1)     98.8666         0.009774   
    114. D(O   4,C   3,C   2,C   1)    -18.1967         0.009774 C 
    115. D(H  11,C   3,C   2,H   8)    -22.9436         0.009774   
    116. D(C   3,O   4,C   0,C   1)     29.5920         0.014035 C 
    117. D(C   3,O   4,C   0,H   5)    151.2043         0.014035   
    118. D(C   3,O   4,C   0,O  15)    -90.0771         0.014035   
    119. D(C   0,O   4,C   3,C   2)     -6.8730         0.012866 C 
    120. D(C   0,O   4,C   3,H  10)    114.8547         0.012866   
    121. D(C   0,O   4,C   3,H  11)   -127.4270         0.012866   
    122. D(C   0,O  15,C  12,C  16)     30.0000         0.007752 C 
    123. D(C  12,O  15,C   0,O   4)    -90.0000         0.007793 C 
    124. D(C  12,O  15,C   0,H   5)     27.4093         0.007793   
    125. D(C   0,O  15,C  12,H  14)    -90.5423         0.007752   
    126. D(C   0,O  15,C  12,H  13)    150.4439         0.007752   
    127. D(C  12,O  15,C   0,C   1)    154.6816         0.007793   
    128. D(C  17,C  16,C  12,H  13)     63.7246         0.009431   
    129. D(H  21,C  16,C  12,H  14)    179.5275         0.009431   
    130. D(C  17,C  16,C  12,O  15)   -175.2972         0.009431   
    131. D(O  20,C  16,C  12,H  13)    179.0229         0.009431   
    132. D(O  20,C  16,C  12,H  14)     62.1252         0.009431   
    133. D(O  20,C  16,C  12,O  15)    -59.9989         0.009431 C 
    134. D(C  17,C  16,C  12,H  14)    -53.1731         0.009431   
    135. D(H  21,C  16,C  12,H  13)    -63.5749         0.009431   
    136. D(H  21,C  16,C  12,O  15)     57.4033         0.009431   
    137. D(C  18,C  17,C  16,C  12)     79.0520         0.010985   
    138. D(C  18,C  17,C  16,O  20)    -40.0131         0.010985 C 
    139. D(C  18,C  17,C  16,H  21)   -156.6131         0.010985   
    140. D(O  22,C  17,C  16,C  12)   -163.5478         0.010985   
    141. D(O  22,C  17,C  16,O  20)     77.3871         0.010985   
    142. D(O  22,C  17,C  16,H  21)    -39.2129         0.010985   
    143. D(H  23,C  17,C  16,C  12)    -42.1941         0.010985   
    144. D(H  23,C  17,C  16,O  20)   -161.2592         0.010985   
    145. D(H  23,C  17,C  16,H  21)     82.1408         0.010985   
    146. D(H  24,C  18,C  17,H  23)    -81.9741         0.009954   
    147. D(C  19,C  18,C  17,O  22)    -81.8769         0.009954   
    148. D(C  19,C  18,C  17,H  23)    156.5455         0.009954   
    149. D(H  24,C  18,C  17,C  16)    156.5409         0.009954   
    150. D(C  19,C  18,C  17,C  16)     35.0604         0.009954 C 
    151. D(H  24,C  18,C  17,O  22)     39.6035         0.009954   
    152. D(H  25,C  18,C  17,C  16)    -83.0226         0.009954   
    153. D(H  25,C  18,C  17,O  22)    160.0400         0.009954   
    154. D(H  25,C  18,C  17,H  23)     38.4625         0.009954   
    155. D(H  27,C  19,C  18,H  25)   -143.4663         0.009751   
    156. D(O  20,C  19,C  18,H  24)   -140.0309         0.009751   
    157. D(O  20,C  19,C  18,H  25)     99.5018         0.009751   
    158. D(H  26,C  19,C  18,C  17)   -137.7068         0.009751   
    159. D(H  26,C  19,C  18,H  24)    100.4889         0.009751   
    160. D(H  26,C  19,C  18,H  25)    -19.9784         0.009751   
    161. D(H  27,C  19,C  18,C  17)     98.8052         0.009751   
    162. D(O  20,C  19,C  18,C  17)    -18.2267         0.009751 C 
    163. D(H  27,C  19,C  18,H  24)    -22.9990         0.009751   
    164. D(C  19,O  20,C  16,C  12)    -90.0882         0.013997   
    165. D(C  19,O  20,C  16,C  17)     29.5557         0.013997 C 
    166. D(C  19,O  20,C  16,H  21)    151.2220         0.013997   
    167. D(C  16,O  20,C  19,C  18)     -6.8221         0.012857 C 
    168. D(C  16,O  20,C  19,H  26)    114.8590         0.012857   
    169. D(C  16,O  20,C  19,H  27)   -127.3653         0.012857   
    170. D(H  28,O  22,C  17,C  16)    -55.9185         0.007757   
    171. D(H  28,O  22,C  17,C  18)     55.7466         0.007757   
    172. D(H  28,O  22,C  17,H  23)    179.9077         0.007757   
    -----------------------------------------------------------------

Number of atoms                         .... 29
Number of degrees of freedom            .... 172

         *************************************************************
         *                GEOMETRY OPTIMIZATION CYCLE   1            *
         *************************************************************
---------------------------------
CARTESIAN COORDINATES (ANGSTROEM)
---------------------------------
  C    -21.048010   26.222040   46.250963
  C    -20.360873   27.557971   45.944028
  C    -20.328983   28.221958   47.341024
  C    -20.110191   27.021960   48.296076
  O    -20.473202   25.806971   47.535036
  H    -20.832993   25.427977   45.533037
  H    -19.343840   27.381891   45.576157
  H    -20.897732   28.157003   45.200953
  H    -19.542931   28.977894   47.434111
  H    -21.288969   28.710035   47.547905
  H    -20.733294   27.082025   49.195000
  H    -19.064236   26.912880   48.597205
  C    -23.420000   25.119019   46.071963
  H    -24.347977   25.147101   46.655996
  H    -23.684041   25.076844   45.007980
  O    -22.586021   26.394078   46.374773
  C    -22.661886   23.808079   46.422941
  C    -23.464886   22.572021   46.005101
  C    -23.181083   22.511959   44.486064
  C    -21.716119   23.006019   44.381856
  O    -21.419987   23.711090   45.647781
  H    -22.379760   23.829137   47.477906
  O    -22.908739   21.309081   46.718092
  H    -24.532861   22.654986   46.234233
  H    -23.313094   21.507933   44.068129
  H    -23.856182   23.188903   43.949119
  H    -21.564255   23.694986   43.543804
  H    -21.002094   22.182046   44.297805
  H    -21.839762   21.205117   46.500960

----------------------------
CARTESIAN COORDINATES (A.U.)
----------------------------
  NO LB      ZA    FRAG     MASS         X           Y           Z
   0 C     6.0000    0    12.011  -39.774974   49.552474   87.401653
   1 C     6.0000    0    12.011  -38.476473   52.077017   86.821630
   2 C     6.0000    0    12.011  -38.416210   53.331772   89.461570
   3 C     6.0000    0    12.011  -38.002753   51.064103   91.266357
   4 O     8.0000    0    15.999  -38.688746   48.768107   89.828200
   5 H     1.0000    0     1.008  -39.368651   48.051913   86.044970
   6 H     1.0000    0     1.008  -36.554559   51.744274   86.126454
   7 H     1.0000    0     1.008  -39.490991   53.209025   85.417422
   8 H     1.0000    0     1.008  -36.930788   54.760284   89.637478
   9 H     1.0000    0     1.008  -40.230321   54.254103   89.852519
  10 H     1.0000    0     1.008  -39.180247   51.177610   92.965078
  11 H     1.0000    0     1.008  -36.026185   50.857973   91.835408
  12 C     6.0000    0    12.011  -44.257386   47.468066   87.063393
  13 H     1.0000    0     1.008  -46.011009   47.521134   88.167054
  14 H     1.0000    0     1.008  -44.756352   47.388368   85.052757
  15 O     8.0000    0    15.999  -42.681394   49.877578   87.635620
  16 C     6.0000    0    12.011  -42.824759   44.990748   87.726645
  17 C     6.0000    0    12.011  -44.342209   42.654938   86.937042
  18 C     6.0000    0    12.011  -43.805899   42.541437   84.066478
  19 C     6.0000    0    12.011  -41.037517   43.475075   83.869554
  20 O     8.0000    0    15.999  -40.477909   44.807467   86.261806
  21 H     1.0000    0     1.008  -42.291617   45.030543   89.720240
  22 O     8.0000    0    15.999  -43.291243   40.268327   88.284400
  23 H     1.0000    0     1.008  -46.360388   42.811718   87.370039
  24 H     1.0000    0     1.008  -44.055362   40.644103   83.276695
  25 H     1.0000    0     1.008  -45.081652   43.820676   83.051798
  26 H     1.0000    0     1.008  -40.750537   44.777034   82.285865
  27 H     1.0000    0     1.008  -39.688205   41.917991   83.710719
  28 H     1.0000    0     1.008  -41.271169   40.071864   87.874080

--------------------------------
INTERNAL COORDINATES (ANGSTROEM)
--------------------------------
 C      0   0   0     0.000000000000     0.00000000     0.00000000
 C      1   0   0     1.533334275362     0.00000000     0.00000000
 C      2   1   0     1.547103422529   101.67907390     0.00000000
 C      3   2   1     1.549188819996   103.12737509    35.02687180
 O      1   2   3     1.466801281701   104.24948604   319.98542309
 H      1   2   3     1.091872245274   114.43876658   203.42640133
 H      2   1   3     1.095759553917   110.06782188   117.34000099
 H      2   1   3     1.095088580892   113.12442239   238.72597460
 H      3   2   1     1.094523183857   112.83161078   156.54780790
 H      3   2   1     1.096628013503   110.07982737   276.98070077
 H      4   3   2     1.095413164062   112.52534669   222.25678475
 H      4   3   2     1.093891219455   112.45670684    98.86663270
 C      1   2   3     2.622028603963   139.30394683    99.68498013
 H     13   1   2     1.096824507385   135.91525583   280.30702161
 H     13   1   2     1.097066998866   107.45818118    63.19811705
 O      1   2   3     1.552547583812   111.30349807    79.08752829
 C     13   1   2     1.554505065929    84.15943455   169.94939375
 C     17  13   1     1.532066904544   111.29697313   200.33485972
 C     18  17  13     1.546485370122   101.71437802    79.05236273
 C     19  18  17     1.549540899751   103.13097919    35.06036365
 O     17  13   1     1.467173473043   110.44234778   315.63398893
 H     17  13   1     1.092240815938   109.13388375    73.03489286
 O     18  17  13     1.553278468273   110.06795320   196.45235905
 H     18  17  13     1.095424118778   113.13151943   317.80607153
 H     19  18  17     1.095519967869   112.84266863   156.54084536
 H     19  18  17     1.096504901950   110.12264588   276.97731557
 H     20  19  18     1.095476608605   112.52186036   222.29318070
 H     20  19  18     1.093539208259   112.47215643    98.80523288
 H     23  18  17     1.095749058863   109.60197544   304.08167694

---------------------------
INTERNAL COORDINATES (A.U.)
---------------------------
 C      0   0   0     0.000000000000     0.00000000     0.00000000
 C      1   0   0     2.897581852189     0.00000000     0.00000000
 C      2   1   0     2.923601769431   101.67907390     0.00000000
 C      3   2   1     2.927542599525   103.12737509    35.02687180
 O      1   2   3     2.771852715300   104.24948604   319.98542309
 H      1   2   3     2.063339516798   114.43876658   203.42640133
 H      2   1   3     2.070685465531   110.06782188   117.34000099
 H      2   1   3     2.069417510270   113.12442239   238.72597460
 H      3   2   1     2.068349064717   112.83161078   156.54780790
 H      3   2   1     2.072326616307   110.07982737   276.98070077
 H      4   3   2     2.070030883569   112.52534669   222.25678475
 H      4   3   2     2.067154825070   112.45670684    98.86663270
 C      1   2   3     4.954915976798   139.30394683    99.68498013
 H     13   1   2     2.072697935930   135.91525583   280.30702161
 H     13   1   2     2.073156178419   107.45818118    63.19811705
 O      1   2   3     2.933889743286   111.30349807    79.08752829
 C     13   1   2     2.937588848400    84.15943455   169.94939375
 C     17  13   1     2.895186868433   111.29697313   200.33485972
 C     18  17  13     2.922433819646   101.71437802    79.05236273
 C     19  18  17     2.928207933839   103.13097919    35.06036365
 O     17  13   1     2.772556055005   110.44234778   315.63398893
 H     17  13   1     2.064036014413   109.13388375    73.03489286
 O     18  17  13     2.935270914752   110.06795320   196.45235905
 H     18  17  13     2.070051584982   113.13151943   317.80607153
 H     19  18  17     2.070232713515   112.84266863   156.54084536
 H     19  18  17     2.072093969187   110.12264588   276.97731557
 H     20  19  18     2.070150776380   112.52186036   222.29318070
 H     20  19  18     2.066489620315   112.47215643    98.80523288
 H     23  18  17     2.070665632754   109.60197544   304.08167694

---------------------
BASIS SET INFORMATION
---------------------
There are 3 groups of distinct atoms

 Group   1 Type C   : 10s4p contracted to 3s2p pattern {631/31}
 Group   2 Type O   : 10s4p contracted to 3s2p pattern {631/31}
 Group   3 Type H   : 4s contracted to 2s pattern {31}

Atom   0C    basis set group =>   1
Atom   1C    basis set group =>   1
Atom   2C    basis set group =>   1
Atom   3C    basis set group =>   1
Atom   4O    basis set group =>   2
Atom   5H    basis set group =>   3
Atom   6H    basis set group =>   3
Atom   7H    basis set group =>   3
Atom   8H    basis set group =>   3
Atom   9H    basis set group =>   3
Atom  10H    basis set group =>   3
Atom  11H    basis set group =>   3
Atom  12C    basis set group =>   1
Atom  13H    basis set group =>   3
Atom  14H    basis set group =>   3
Atom  15O    basis set group =>   2
Atom  16C    basis set group =>   1
Atom  17C    basis set group =>   1
Atom  18C    basis set group =>   1
Atom  19C    basis set group =>   1
Atom  20O    basis set group =>   2
Atom  21H    basis set group =>   3
Atom  22O    basis set group =>   2
Atom  23H    basis set group =>   3
Atom  24H    basis set group =>   3
Atom  25H    basis set group =>   3
Atom  26H    basis set group =>   3
Atom  27H    basis set group =>   3
Atom  28H    basis set group =>   3
------------------------------------------------------------------------------
                           ORCA GTO INTEGRAL CALCULATION
------------------------------------------------------------------------------

                         BASIS SET STATISTICS AND STARTUP INFO

 # of primitive gaussian shells          ...  246
 # of primitive gaussian functions       ...  350
 # of contracted shells                  ...   97
 # of contracted basis functions         ...  149
 Highest angular momentum                ...    1
 Maximum contraction depth               ...    6
 Integral package used                   ... LIBINT
 Integral threshhold            Thresh   ...  2.500e-11
 Primitive cut-off              TCut     ...  2.500e-12


------------------------------ INTEGRAL EVALUATION ----------------------------


 * One electron integrals 
 Pre-screening matrix                    ... done
 Shell pair data                         ... done (   0.003 sec)

-------------------------------------------------------------------------------
                                 ORCA SCF
-------------------------------------------------------------------------------

------------
SCF SETTINGS
------------
Hamiltonian:
 Density Functional     Method          .... DFT(GTOs)
 Exchange Functional    Exchange        .... B88
   X-Alpha parameter    XAlpha          ....  0.666667
   Becke's b parameter  XBeta           ....  0.004200
 Correlation Functional Correlation     .... LYP
 LDA part of GGA corr.  LDAOpt          .... VWN-5
 Gradients option       PostSCFGGA      .... off
 Hybrid DFT is turned on
   Fraction HF Exchange ScalHFX         ....  0.200000
   Scaling of DF-GGA-X  ScalDFX         ....  0.720000
   Scaling of DF-GGA-C  ScalDFC         ....  0.810000
   Scaling of DF-LDA-C  ScalLDAC        ....  1.000000
   Perturbative correction              ....  0.000000
   Density functional embedding theory  .... OFF
   NL short-range parameter             ....  4.800000


General Settings:
 Integral files         IntName         .... project_8052/ensemble_270_30
 Hartree-Fock type      HFTyp           .... RHF
 Total Charge           Charge          ....    0
 Multiplicity           Mult            ....    1
 Number of Electrons    NEL             ....  102
 Basis Dimension        Dim             ....  149
 Nuclear Repulsion      ENuc            ....    883.3344509298 Eh

Convergence Acceleration:
 DIIS                   CNVDIIS         .... on
   Start iteration      DIISMaxIt       ....    12
   Startup error        DIISStart       ....  0.200000
   # of expansion vecs  DIISMaxEq       ....     5
   Bias factor          DIISBfac        ....   1.050
   Max. coefficient     DIISMaxC        ....  10.000
 Newton-Raphson         CNVNR           .... off
 SOSCF                  CNVSOSCF        .... on
   Start iteration      SOSCFMaxIt      ....   150
   Startup grad/error   SOSCFStart      ....  0.003300
 Level Shifting         CNVShift        .... on
   Level shift para.    LevelShift      ....    0.2500
   Turn off err/grad.   ShiftErr        ....    0.0010
 Zerner damping         CNVZerner       .... off
 Static damping         CNVDamp         .... on
   Fraction old density DampFac         ....    0.7000
   Max. Damping (<1)    DampMax         ....    0.9800
   Min. Damping (>=0)   DampMin         ....    0.0000
   Turn off err/grad.   DampErr         ....    0.1000
 Fernandez-Rico         CNVRico         .... off

SCF Procedure:
 Maximum # iterations   MaxIter         ....   125
 SCF integral mode      SCFMode         .... Direct
   Integral package                     .... LIBINT
 Reset frequency        DirectResetFreq ....    20
 Integral Threshold     Thresh          ....  2.500e-11 Eh
 Primitive CutOff       TCut            ....  2.500e-12 Eh

Convergence Tolerance:
 Convergence Check Mode ConvCheckMode   .... Total+1el-Energy
 Convergence forced     ConvForced      .... 0
 Energy Change          TolE            ....  1.000e-08 Eh
 1-El. energy change                    ....  1.000e-05 Eh
 Orbital Gradient       TolG            ....  1.000e-05
 Orbital Rotation angle TolX            ....  1.000e-05
 DIIS Error             TolErr          ....  5.000e-07


Diagonalization of the overlap matrix:
Smallest eigenvalue                        ... 4.044e-03
Time for diagonalization                   ...    0.007 sec
Threshold for overlap eigenvalues          ... 1.000e-08
Number of eigenvalues below threshold      ... 0
Time for construction of square roots      ...    0.008 sec
Total time needed                          ...    0.015 sec

-------------------
DFT GRID GENERATION
-------------------

General Integration Accuracy     IntAcc      ...  4.340
Radial Grid Type                 RadialGrid  ... Gauss-Chebyshev
Angular Grid (max. acc.)         AngularGrid ... Lebedev-110
Angular grid pruning method      GridPruning ... 3 (G Style)
Weight generation scheme         WeightScheme... Becke
Basis function cutoff            BFCut       ...    1.0000e-11
Integration weight cutoff        WCut        ...    1.0000e-14
Grids for H and He will be reduced by one unit

# of grid points (after initial pruning)     ...  34472 (   0.0 sec)
# of grid points (after weights+screening)   ...  30972 (   0.5 sec)
nearest neighbour list constructed           ...    0.0 sec
Grid point re-assignment to atoms done       ...    0.0 sec
Grid point division into batches done        ...    0.0 sec
Reduced shell lists constructed in    0.4 sec

Total number of grid points                  ...    30972
Total number of batches                      ...      498
Average number of points per batch           ...       62
Average number of grid points per atom       ...     1068
Average number of shells per batch           ...    59.73 (61.58%)
Average number of basis functions per batch  ...    97.28 (65.29%)
Average number of large shells per batch     ...    41.98 (70.27%)
Average number of large basis fcns per batch ...    69.70 (71.64%)
Maximum spatial batch extension              ...  19.30, 19.32, 22.49 au
Average spatial batch extension              ...   3.39,  3.39,  3.46 au

Time for grid setup =    0.988 sec

------------------------------
INITIAL GUESS: MODEL POTENTIAL
------------------------------
Loading Hartree-Fock densities                     ... done
Calculating cut-offs                               ... done
Setting up the integral package                    ... done
Initializing the effective Hamiltonian             ... done
Starting the Coulomb interaction                   ... done (   0.5 sec)
Reading the grid                                   ... done
Mapping shells                                     ... done
Starting the XC term evaluation                    ... done (   0.5 sec)
  promolecular density results
     # of electrons  =    101.998057112
     EX              =    -83.675375421
     EC              =     -3.461937441
     EX+EC           =    -87.137312862
Transforming the Hamiltonian                       ... done (   0.0 sec)
Diagonalizing the Hamiltonian                      ... done (   0.0 sec)
Back transforming the eigenvectors                 ... done (   0.0 sec)
Now organizing SCF variables                       ... done
                      ------------------
                      INITIAL GUESS DONE (   2.2 sec)
                      ------------------
--------------
SCF ITERATIONS
--------------
ITER       Energy         Delta-E        Max-DP      RMS-DP      [F,P]     Damp
               ***  Starting incremental Fock matrix formation  ***
  0   -652.5315673601   0.000000000000 0.07758591  0.00300775  0.2549027 0.7000
  1   -652.6698515620  -0.138284201902 0.04612775  0.00206038  0.1116149 0.7000
                               ***Turning on DIIS***
  2   -652.7220357800  -0.052184218021 0.05663436  0.00332703  0.0310422 0.0000
  3   -652.8081971793  -0.086161399267 0.03079286  0.00136911  0.0584464 0.0000
  4   -652.8253063299  -0.017109150613 0.00854228  0.00042984  0.0093433 0.0000
  5   -652.8263012627  -0.000994932765 0.00269164  0.00013001  0.0041041 0.0000
                      *** Initiating the SOSCF procedure ***
                           *** Shutting down DIIS ***
                      *** Re-Reading the Fockian *** 
                      *** Removing any level shift *** 
ITER      Energy       Delta-E        Grad      Rot      Max-DP    RMS-DP
  6   -652.82637009  -0.0000688281  0.000210  0.000210  0.000864  0.000055
               *** Restarting incremental Fock matrix formation ***
  7   -652.82637284  -0.0000027525  0.000133  0.000232  0.000899  0.000032
  8   -652.82637088   0.0000019678  0.000230  0.000164  0.000649  0.000020
  9   -652.82637410  -0.0000032197  0.000025  0.000036  0.000195  0.000007
 10   -652.82637402   0.0000000747  0.000037  0.000021  0.000121  0.000004
 11   -652.82637416  -0.0000001401  0.000005  0.000008  0.000033  0.000001
 12   -652.82637416   0.0000000013  0.000008  0.000005  0.000020  0.000001
                  ***Gradient check signals convergence***
              ***Rediagonalizing the Fockian in SOSCF/NRSCF***

               *****************************************************
               *                     SUCCESS                       *
               *           SCF CONVERGED AFTER  13 CYCLES          *
               *****************************************************

Setting up the final grid:

General Integration Accuracy     IntAcc      ...  4.670
Radial Grid Type                 RadialGrid  ... Gauss-Chebyshev
Angular Grid (max. acc.)         AngularGrid ... Lebedev-302
Angular grid pruning method      GridPruning ... 3 (G Style)
Weight generation scheme         WeightScheme... Becke
Basis function cutoff            BFCut       ...    1.0000e-11
Integration weight cutoff        WCut        ...    1.0000e-14
Grids for H and He will be reduced by one unit

# of grid points (after initial pruning)     ... 135060 (   0.1 sec)
# of grid points (after weights+screening)   ... 118755 (   1.5 sec)
nearest neighbour list constructed           ...    0.0 sec
Grid point re-assignment to atoms done       ...    0.0 sec
Grid point division into batches done        ...    0.5 sec
Reduced shell lists constructed in    1.8 sec

Total number of grid points                  ...   118755
Total number of batches                      ...     1869
Average number of points per batch           ...       63
Average number of grid points per atom       ...     4095
Average number of shells per batch           ...    54.29 (55.96%)
Average number of basis functions per batch  ...    88.66 (59.50%)
Average number of large shells per batch     ...    37.61 (69.28%)
Average number of large basis fcns per batch ...    62.69 (70.71%)
Maximum spatial batch extension              ...  20.83, 17.61, 20.18 au
Average spatial batch extension              ...   2.21,  2.20,  2.29 au

Final grid set up in    3.6 sec
Final integration                            ... done (   2.3 sec)
Change in XC energy                          ...    -0.000303257
Integrated number of electrons               ...   101.999797780
Previous integrated no of electrons          ...   102.000857693

----------------
TOTAL SCF ENERGY
----------------

Total Energy       :         -652.82667742 Eh          -17764.31701 eV

Components:
Nuclear Repulsion  :          883.33445093 Eh           24036.75241 eV
Electronic Energy  :        -1536.16112835 Eh          -41801.06943 eV
One Electron Energy:        -2644.90758022 Eh          -71971.59422 eV
Two Electron Energy:         1108.74645187 Eh           30170.52480 eV

Virial components:
Potential Energy   :        -1301.84540206 Eh          -35425.01436 eV
Kinetic Energy     :          649.01872464 Eh           17660.69735 eV
Virial Ratio       :            2.00586725


DFT components:
N(Alpha)           :       50.999898889817 electrons
N(Beta)            :       50.999898889817 electrons
N(Total)           :      101.999797779633 electrons
E(X)               :      -67.604481793418 Eh       
E(C)               :       -4.073182328418 Eh       
E(XC)              :      -71.677664121836 Eh       
DFET-embed. en.    :        0.000000000000 Eh       

---------------
SCF CONVERGENCE
---------------

  Last Energy change         ...   -3.4489e-09  Tolerance :   1.0000e-08
  Last MAX-Density change    ...    1.9656e-06  Tolerance :   1.0000e-07
  Last RMS-Density change    ...    9.5089e-08  Tolerance :   5.0000e-09
  Last Orbital Gradient      ...    3.4480e-07  Tolerance :   1.0000e-05
  Last Orbital Rotation      ...    5.7721e-07  Tolerance :   1.0000e-05

             **** THE GBW FILE WAS UPDATED (project_8052/ensemble_270_30.gbw) ****
             **** DENSITY FILE WAS UPDATED (project_8052/ensemble_270_30.scfp) ****
             **** ENERGY FILE WAS UPDATED (project_8052/ensemble_270_30.en.tmp) ****
             **** THE GBW FILE WAS UPDATED (project_8052/ensemble_270_30.gbw) ****
             **** DENSITY FILE WAS UPDATED (project_8052/ensemble_270_30.scfp) ****
----------------
ORBITAL ENERGIES
----------------

  NO   OCC          E(Eh)            E(eV) 
   0   2.0000     -19.150347      -521.1074 
   1   2.0000     -19.148104      -521.0464 
   2   2.0000     -19.132888      -520.6323 
   3   2.0000     -19.129929      -520.5518 
   4   2.0000     -10.254501      -279.0391 
   5   2.0000     -10.252856      -278.9944 
   6   2.0000     -10.240405      -278.6556 
   7   2.0000     -10.238622      -278.6071 
   8   2.0000     -10.233876      -278.4779 
   9   2.0000     -10.213733      -277.9298 
  10   2.0000     -10.200617      -277.5729 
  11   2.0000     -10.177142      -276.9341 
  12   2.0000     -10.175250      -276.8826 
  13   2.0000      -1.041106       -28.3299 
  14   2.0000      -1.015655       -27.6374 
  15   2.0000      -0.967824       -26.3358 
  16   2.0000      -0.949165       -25.8281 
  17   2.0000      -0.793784       -21.5999 
  18   2.0000      -0.775652       -21.1066 
  19   2.0000      -0.764658       -20.8074 
  20   2.0000      -0.718709       -19.5571 
  21   2.0000      -0.670130       -18.2352 
  22   2.0000      -0.607577       -16.5330 
  23   2.0000      -0.589218       -16.0334 
  24   2.0000      -0.584349       -15.9009 
  25   2.0000      -0.570435       -15.5223 
  26   2.0000      -0.520162       -14.1543 
  27   2.0000      -0.499124       -13.5818 
  28   2.0000      -0.489998       -13.3335 
  29   2.0000      -0.472166       -12.8483 
  30   2.0000      -0.465375       -12.6635 
  31   2.0000      -0.446509       -12.1501 
  32   2.0000      -0.433922       -11.8076 
  33   2.0000      -0.430179       -11.7058 
  34   2.0000      -0.418536       -11.3889 
  35   2.0000      -0.407851       -11.0982 
  36   2.0000      -0.393592       -10.7102 
  37   2.0000      -0.389586       -10.6012 
  38   2.0000      -0.380204       -10.3459 
  39   2.0000      -0.365352        -9.9417 
  40   2.0000      -0.360736        -9.8161 
  41   2.0000      -0.345678        -9.4064 
  42   2.0000      -0.340713        -9.2713 
  43   2.0000      -0.325585        -8.8596 
  44   2.0000      -0.318808        -8.6752 
  45   2.0000      -0.306145        -8.3306 
  46   2.0000      -0.291607        -7.9350 
  47   2.0000      -0.272157        -7.4058 
  48   2.0000      -0.255648        -6.9565 
  49   2.0000      -0.248207        -6.7541 
  50   2.0000      -0.228690        -6.2230 
  51   0.0000       0.033228         0.9042 
  52   0.0000       0.061461         1.6724 
  53   0.0000       0.079326         2.1586 
  54   0.0000       0.089850         2.4450 
  55   0.0000       0.102782         2.7968 
  56   0.0000       0.109750         2.9865 
  57   0.0000       0.126625         3.4456 
  58   0.0000       0.127377         3.4661 
  59   0.0000       0.135715         3.6930 
  60   0.0000       0.141677         3.8552 
  61   0.0000       0.147337         4.0092 
  62   0.0000       0.152779         4.1573 
  63   0.0000       0.158230         4.3057 
  64   0.0000       0.162124         4.4116 
  65   0.0000       0.165616         4.5066 
  66   0.0000       0.178184         4.8486 
  67   0.0000       0.182114         4.9556 
  68   0.0000       0.187656         5.1064 
  69   0.0000       0.197073         5.3626 
  70   0.0000       0.210623         5.7313 
  71   0.0000       0.215777         5.8716 
  72   0.0000       0.226590         6.1658 
  73   0.0000       0.234055         6.3690 
  74   0.0000       0.239857         6.5268 
  75   0.0000       0.253244         6.8911 
  76   0.0000       0.257705         7.0125 
  77   0.0000       0.280684         7.6378 
  78   0.0000       0.292492         7.9591 
  79   0.0000       0.298605         8.1255 
  80   0.0000       0.306463         8.3393 
  81   0.0000       0.518460        14.1080 
  82   0.0000       0.539107        14.6698 
  83   0.0000       0.546040        14.8585 
  84   0.0000       0.558192        15.1892 
  85   0.0000       0.561454        15.2780 
  86   0.0000       0.565899        15.3989 
  87   0.0000       0.581599        15.8261 
  88   0.0000       0.587813        15.9952 
  89   0.0000       0.592336        16.1183 
  90   0.0000       0.599703        16.3187 
  91   0.0000       0.611774        16.6472 
  92   0.0000       0.618503        16.8303 
  93   0.0000       0.624929        17.0052 
  94   0.0000       0.642056        17.4712 
  95   0.0000       0.651898        17.7390 
  96   0.0000       0.657005        17.8780 
  97   0.0000       0.669917        18.2294 
  98   0.0000       0.687452        18.7065 
  99   0.0000       0.702954        19.1283 
 100   0.0000       0.748708        20.3734 
 101   0.0000       0.766936        20.8694 
 102   0.0000       0.803729        21.8706 
 103   0.0000       0.809531        22.0285 
 104   0.0000       0.820336        22.3225 
 105   0.0000       0.830662        22.6034 
 106   0.0000       0.846668        23.0390 
 107   0.0000       0.853764        23.2321 
 108   0.0000       0.859465        23.3872 
 109   0.0000       0.885240        24.0886 
 110   0.0000       0.888730        24.1836 
 111   0.0000       0.899970        24.4894 
 112   0.0000       0.901858        24.5408 
 113   0.0000       0.915246        24.9051 
 114   0.0000       0.918385        24.9905 
 115   0.0000       0.919068        25.0091 
 116   0.0000       0.942731        25.6530 
 117   0.0000       0.949656        25.8415 
 118   0.0000       0.958745        26.0888 
 119   0.0000       0.965968        26.2853 
 120   0.0000       0.974559        26.5191 
 121   0.0000       0.988600        26.9012 
 122   0.0000       1.011395        27.5215 
 123   0.0000       1.029168        28.0051 
 124   0.0000       1.039723        28.2923 
 125   0.0000       1.070932        29.1415 
 126   0.0000       1.085770        29.5453 
 127   0.0000       1.130030        30.7497 
 128   0.0000       1.140152        31.0251 
 129   0.0000       1.184072        32.2202 
 130   0.0000       1.189049        32.3557 
 131   0.0000       1.220541        33.2126 
 132   0.0000       1.310906        35.6716 
 133   0.0000       1.339528        36.4504 
 134   0.0000       1.344844        36.5951 
 135   0.0000       1.359354        36.9899 
 136   0.0000       1.383833        37.6560 
 137   0.0000       1.425366        38.7862 
 138   0.0000       1.445815        39.3426 
 139   0.0000       1.477482        40.2043 
 140   0.0000       1.559362        42.4324 
 141   0.0000       1.564677        42.5770 
 142   0.0000       1.623331        44.1731 
 143   0.0000       1.691630        46.0316 
 144   0.0000       1.721954        46.8567 
 145   0.0000       1.878225        51.1091 
 146   0.0000       1.938394        52.7464 
 147   0.0000       2.064131        56.1678 
 148   0.0000       2.167457        58.9795 

                    ********************************
                    * MULLIKEN POPULATION ANALYSIS *
                    ********************************

-----------------------
MULLIKEN ATOMIC CHARGES
-----------------------
   0 C :    0.277372
   1 C :   -0.274829
   2 C :   -0.301454
   3 C :    0.001528
   4 O :   -0.514763
   5 H :    0.207524
   6 H :    0.147103
   7 H :    0.148781
   8 H :    0.134261
   9 H :    0.160260
  10 H :    0.142127
  11 H :    0.135906
  12 C :   -0.010304
  13 H :    0.146578
  14 H :    0.125469
  15 O :   -0.527626
  16 C :    0.058150
  17 C :    0.069629
  18 C :   -0.309197
  19 C :   -0.031231
  20 O :   -0.520011
  21 H :    0.200652
  22 O :   -0.592069
  23 H :    0.157245
  24 H :    0.166085
  25 H :    0.152487
  26 H :    0.145000
  27 H :    0.152197
  28 H :    0.353129
Sum of atomic charges:   -0.0000000

--------------------------------
MULLIKEN REDUCED ORBITAL CHARGES
--------------------------------
  0 C s       :     3.239319  s :     3.239319
      pz      :     0.819929  p :     2.483308
      px      :     0.664072
      py      :     0.999307
  1 C s       :     3.310330  s :     3.310330
      pz      :     0.983008  p :     2.964499
      px      :     1.028090
      py      :     0.953401
  2 C s       :     3.314081  s :     3.314081
      pz      :     0.914666  p :     2.987373
      px      :     1.082170
      py      :     0.990537
  3 C s       :     3.256997  s :     3.256997
      pz      :     0.940802  p :     2.741476
      px      :     1.050915
      py      :     0.749759
  4 O s       :     3.946773  s :     3.946773
      pz      :     1.324236  p :     4.567990
      px      :     1.731715
      py      :     1.512039
  5 H s       :     0.792476  s :     0.792476
  6 H s       :     0.852897  s :     0.852897
  7 H s       :     0.851219  s :     0.851219
  8 H s       :     0.865739  s :     0.865739
  9 H s       :     0.839740  s :     0.839740
 10 H s       :     0.857873  s :     0.857873
 11 H s       :     0.864094  s :     0.864094
 12 C s       :     3.283949  s :     3.283949
      pz      :     1.035764  p :     2.726355
      px      :     0.929979
      py      :     0.760612
 13 H s       :     0.853422  s :     0.853422
 14 H s       :     0.874531  s :     0.874531
 15 O s       :     3.951208  s :     3.951208
      pz      :     1.845561  p :     4.576419
      px      :     1.249337
      py      :     1.481521
 16 C s       :     3.283513  s :     3.283513
      pz      :     1.030865  p :     2.658337
      px      :     0.736152
      py      :     0.891320
 17 C s       :     3.305737  s :     3.305737
      pz      :     0.857734  p :     2.624634
      px      :     1.021927
      py      :     0.744973
 18 C s       :     3.318547  s :     3.318547
      pz      :     0.942339  p :     2.990650
      px      :     0.948785
      py      :     1.099526
 19 C s       :     3.265401  s :     3.265401
      pz      :     0.803673  p :     2.765830
      px      :     0.970115
      py      :     0.992041
 20 O s       :     3.945574  s :     3.945574
      pz      :     1.326866  p :     4.574437
      px      :     1.496337
      py      :     1.751234
 21 H s       :     0.799348  s :     0.799348
 22 O s       :     3.951798  s :     3.951798
      pz      :     1.781823  p :     4.640271
      px      :     1.320416
      py      :     1.538031
 23 H s       :     0.842755  s :     0.842755
 24 H s       :     0.833915  s :     0.833915
 25 H s       :     0.847513  s :     0.847513
 26 H s       :     0.855000  s :     0.855000
 27 H s       :     0.847803  s :     0.847803
 28 H s       :     0.646871  s :     0.646871


                     *******************************
                     * LOEWDIN POPULATION ANALYSIS *
                     *******************************

----------------------
LOEWDIN ATOMIC CHARGES
----------------------
   0 C :    0.160331
   1 C :   -0.217729
   2 C :   -0.218555
   3 C :   -0.030467
   4 O :   -0.319008
   5 H :    0.134899
   6 H :    0.115190
   7 H :    0.120587
   8 H :    0.109135
   9 H :    0.117601
  10 H :    0.102571
  11 H :    0.098731
  12 C :   -0.042608
  13 H :    0.115142
  14 H :    0.093878
  15 O :   -0.363936
  16 C :    0.013481
  17 C :    0.043929
  18 C :   -0.238545
  19 C :   -0.041804
  20 O :   -0.313248
  21 H :    0.137794
  22 O :   -0.439305
  23 H :    0.121746
  24 H :    0.128365
  25 H :    0.115156
  26 H :    0.103249
  27 H :    0.104800
  28 H :    0.288621

-------------------------------
LOEWDIN REDUCED ORBITAL CHARGES
-------------------------------
  0 C s       :     2.984386  s :     2.984386
      pz      :     0.938518  p :     2.855283
      px      :     0.816586
      py      :     1.100180
  1 C s       :     2.974497  s :     2.974497
      pz      :     1.075355  p :     3.243233
      px      :     1.106339
      py      :     1.061538
  2 C s       :     2.973537  s :     2.973537
      pz      :     1.036428  p :     3.245017
      px      :     1.130205
      py      :     1.078385
  3 C s       :     2.983663  s :     2.983663
      pz      :     1.039197  p :     3.046804
      px      :     1.116220
      py      :     0.891387
  4 O s       :     3.608305  s :     3.608305
      pz      :     1.385886  p :     4.710703
      px      :     1.764660
      py      :     1.560157
  5 H s       :     0.865101  s :     0.865101
  6 H s       :     0.884810  s :     0.884810
  7 H s       :     0.879413  s :     0.879413
  8 H s       :     0.890865  s :     0.890865
  9 H s       :     0.882399  s :     0.882399
 10 H s       :     0.897429  s :     0.897429
 11 H s       :     0.901269  s :     0.901269
 12 C s       :     2.998911  s :     2.998911
      pz      :     1.115547  p :     3.043697
      px      :     1.023445
      py      :     0.904705
 13 H s       :     0.884858  s :     0.884858
 14 H s       :     0.906122  s :     0.906122
 15 O s       :     3.656966  s :     3.656966
      pz      :     1.871146  p :     4.706970
      px      :     1.315475
      py      :     1.520349
 16 C s       :     2.970439  s :     2.970439
      pz      :     1.069290  p :     3.016079
      px      :     0.895026
      py      :     1.051763
 17 C s       :     2.973586  s :     2.973586
      pz      :     1.002139  p :     2.982485
      px      :     1.081804
      py      :     0.898543
 18 C s       :     2.982654  s :     2.982654
      pz      :     1.060200  p :     3.255890
      px      :     1.063492
      py      :     1.132199
 19 C s       :     2.982906  s :     2.982906
      pz      :     0.920946  p :     3.058898
      px      :     1.076232
      py      :     1.061720
 20 O s       :     3.601525  s :     3.601525
      pz      :     1.388136  p :     4.711723
      px      :     1.553562
      py      :     1.770025
 21 H s       :     0.862206  s :     0.862206
 22 O s       :     3.693908  s :     3.693908
      pz      :     1.803297  p :     4.745397
      px      :     1.363506
      py      :     1.578595
 23 H s       :     0.878254  s :     0.878254
 24 H s       :     0.871635  s :     0.871635
 25 H s       :     0.884844  s :     0.884844
 26 H s       :     0.896751  s :     0.896751
 27 H s       :     0.895200  s :     0.895200
 28 H s       :     0.711379  s :     0.711379


                      *****************************
                      * MAYER POPULATION ANALYSIS *
                      *****************************

  NA   - Mulliken gross atomic population
  ZA   - Total nuclear charge
  QA   - Mulliken gross atomic charge
  VA   - Mayer's total valence
  BVA  - Mayer's bonded valence
  FA   - Mayer's free valence

  ATOM       NA         ZA         QA         VA         BVA        FA
  0 C      5.7226     6.0000     0.2774     3.5671     3.5671    -0.0000
  1 C      6.2748     6.0000    -0.2748     3.7318     3.7318    -0.0000
  2 C      6.3015     6.0000    -0.3015     3.7666     3.7666    -0.0000
  3 C      5.9985     6.0000     0.0015     3.6687     3.6687    -0.0000
  4 O      8.5148     8.0000    -0.5148     1.7966     1.7966    -0.0000
  5 H      0.7925     1.0000     0.2075     0.9275     0.9275    -0.0000
  6 H      0.8529     1.0000     0.1471     0.9304     0.9304     0.0000
  7 H      0.8512     1.0000     0.1488     0.9415     0.9415    -0.0000
  8 H      0.8657     1.0000     0.1343     0.9374     0.9374     0.0000
  9 H      0.8397     1.0000     0.1603     0.9322     0.9322    -0.0000
 10 H      0.8579     1.0000     0.1421     0.9274     0.9274    -0.0000
 11 H      0.8641     1.0000     0.1359     0.9291     0.9291     0.0000
 12 C      6.0103     6.0000    -0.0103     3.6698     3.6698    -0.0000
 13 H      0.8534     1.0000     0.1466     0.9317     0.9317     0.0000
 14 H      0.8745     1.0000     0.1255     0.9300     0.9300     0.0000
 15 O      8.5276     8.0000    -0.5276     1.7855     1.7855    -0.0000
 16 C      5.9418     6.0000     0.0582     3.5463     3.5463    -0.0000
 17 C      5.9304     6.0000     0.0696     3.6344     3.6344    -0.0000
 18 C      6.3092     6.0000    -0.3092     3.7000     3.7000    -0.0000
 19 C      6.0312     6.0000    -0.0312     3.6593     3.6593     0.0000
 20 O      8.5200     8.0000    -0.5200     1.7714     1.7714    -0.0000
 21 H      0.7993     1.0000     0.2007     0.9335     0.9335    -0.0000
 22 O      8.5921     8.0000    -0.5921     1.7618     1.7618    -0.0000
 23 H      0.8428     1.0000     0.1572     0.9376     0.9376    -0.0000
 24 H      0.8339     1.0000     0.1661     0.9391     0.9391    -0.0000
 25 H      0.8475     1.0000     0.1525     0.9340     0.9340    -0.0000
 26 H      0.8550     1.0000     0.1450     0.9288     0.9288     0.0000
 27 H      0.8478     1.0000     0.1522     0.9281     0.9281    -0.0000
 28 H      0.6469     1.0000     0.3531     0.8458     0.8458     0.0000

  Mayer bond orders larger than 0.100000
B(  0-C ,  1-C ) :   0.9350 B(  0-C ,  4-O ) :   0.8899 B(  0-C ,  5-H ) :   0.8734 
B(  0-C , 15-O ) :   0.8298 B(  1-C ,  2-C ) :   0.9574 B(  1-C ,  6-H ) :   0.9385 
B(  1-C ,  7-H ) :   0.9368 B(  2-C ,  3-C ) :   0.9552 B(  2-C ,  8-H ) :   0.9461 
B(  2-C ,  9-H ) :   0.9454 B(  3-C ,  4-O ) :   0.8474 B(  3-C , 10-H ) :   0.9349 
B(  3-C , 11-H ) :   0.9397 B( 12-C , 13-H ) :   0.9234 B( 12-C , 14-H ) :   0.9159 
B( 12-C , 15-O ) :   0.8873 B( 12-C , 16-C ) :   0.8977 B( 16-C , 17-C ) :   0.8891 
B( 16-C , 20-O ) :   0.8184 B( 16-C , 21-H ) :   0.9122 B( 17-C , 18-C ) :   0.9145 
B( 17-C , 22-O ) :   0.8918 B( 17-C , 23-H ) :   0.9321 B( 18-C , 19-C ) :   0.9423 
B( 18-C , 24-H ) :   0.9371 B( 18-C , 25-H ) :   0.9274 B( 19-C , 20-O ) :   0.8407 
B( 19-C , 26-H ) :   0.9334 B( 19-C , 27-H ) :   0.9371 B( 22-O , 28-H ) :   0.8066 


-------
TIMINGS
-------

Total SCF time: 0 days 0 hours 3 min 24 sec 

Total time                  ....     204.082 sec
Sum of individual times     ....     201.347 sec  ( 98.7%)

Fock matrix formation       ....     195.121 sec  ( 95.6%)
  XC integration            ....      29.292 sec  ( 15.0% of F)
    Basis function eval.    ....       4.122 sec  ( 14.1% of XC)
    Density eval.           ....       2.232 sec  (  7.6% of XC)
    XC-Functional eval.     ....       1.021 sec  (  3.5% of XC)
    XC-Potential eval.      ....       2.393 sec  (  8.2% of XC)
Diagonalization             ....       0.117 sec  (  0.1%)
Density matrix formation    ....       0.009 sec  (  0.0%)
Population analysis         ....       0.137 sec  (  0.1%)
Initial guess               ....       1.179 sec  (  0.6%)
Orbital Transformation      ....       0.000 sec  (  0.0%)
Orbital Orthonormalization  ....       0.000 sec  (  0.0%)
DIIS solution               ....       0.105 sec  (  0.1%)
SOSCF solution              ....       0.079 sec  (  0.0%)
Grid generation             ....       4.599 sec  (  2.3%)

-------------------------   --------------------
FINAL SINGLE POINT ENERGY      -652.826677419893
-------------------------   --------------------

------------------------------------------------------------------------------
                         ORCA SCF GRADIENT CALCULATION
------------------------------------------------------------------------------

Gradient of the Kohn-Sham DFT energy:
Kohn-Sham wavefunction type      ... RKS
Hartree-Fock exchange scaling    ...    0.200
Number of operators              ...    1
Number of atoms                  ...   29
Basis set dimensions             ...  149
Integral neglect threshold       ... 2.5e-11
Integral primitive cutoff        ... 2.5e-12

Nuclear repulsion gradient       ... done
One Electron Gradient            ... done
Pre-screening matrix             ... done
Starting the two electron gradient:
Two electron gradient done
Exchange-correlation gradient    ... done

------------------
CARTESIAN GRADIENT
------------------

   1   C   :    0.008009173    0.001217887    0.000443514
   2   C   :    0.016436543   -0.006205288   -0.008730167
   3   C   :   -0.001474764   -0.002000034   -0.001991438
   4   C   :    0.000949368   -0.003563019   -0.002543319
   5   O   :    0.009606711   -0.006123399    0.013715014
   6   H   :    0.003097094   -0.008073804   -0.008665023
   7   H   :    0.000766445    0.003876253   -0.000019049
   8   H   :    0.000523681    0.001808377   -0.000970127
   9   H   :   -0.000817307    0.000196694   -0.000484728
  10   H   :   -0.000408033    0.001536673    0.000970773
  11   H   :   -0.000410701    0.000434685    0.000925898
  12   H   :   -0.000636340    0.000734657    0.000399360
  13   C   :   -0.030747358   -0.008261314   -0.005665227
  14   H   :   -0.004804326   -0.009638046   -0.002276655
  15   H   :   -0.001751457   -0.009216677   -0.000021856
  16   O   :   -0.008316747    0.026585048    0.009690453
  17   C   :    0.008681971   -0.013714076   -0.008799214
  18   C   :   -0.023998322    0.022291356   -0.004847824
  19   C   :   -0.002805673    0.003509951   -0.000092031
  20   C   :    0.001112498    0.002437485    0.003565953
  21   O   :    0.004931097    0.022047803    0.007026180
  22   H   :   -0.000813789    0.003119226    0.001709173
  23   O   :   -0.040554293   -0.018922305    0.026071060
  24   H   :   -0.004544781    0.009423657   -0.005521008
  25   H   :    0.000791274   -0.000832405   -0.003199331
  26   H   :    0.000597592    0.001002274   -0.000228528
  27   H   :   -0.000511396    0.000559996   -0.000053905
  28   H   :   -0.000535390    0.000008530    0.001014276
  29   H   :    0.067627231   -0.014240187   -0.011422223

Difference to translation invariance:
           :    0.0000000000   -0.0000000000   -0.0000000001

Norm of the cartesian gradient     ...    0.1135541574
RMS gradient                       ...    0.0121742836
MAX gradient                       ...    0.0676272310

-------
TIMINGS
-------

Total SCF gradient time            ...      144.306 sec

One electron gradient       ....       0.377 sec  (  0.3%)
Prescreening matrices       ....       0.064 sec  (  0.0%)
Two electron gradient       ....     121.722 sec  ( 84.3%)
XC gradient                 ....      15.891 sec  ( 11.0%)
------------------------------------------------------------------------------
                         ORCA GEOMETRY RELAXATION STEP
------------------------------------------------------------------------------

Reading the OPT-File                    .... done
Getting information on internals        .... done
Copying old internal coords+grads       .... done
Making the new internal coordinates     .... (new redundants).... done
Validating the new internal coordinates .... (new redundants).... done
Calculating the B-matrix                .... done
Calculating the G,G- and P matrices     .... done
Transforming gradient to internals      .... done
Projecting the internal gradient        .... done
Number of atoms                         ....  29
Number of internal coordinates          .... 172
Current Energy                          ....  -652.826677420 Eh
Current gradient norm                   ....     0.113554157 Eh/bohr
Maximum allowed component of the step   ....  0.300
Current trust radius                    ....  0.300
Evaluating the initial hessian          ....  (Almloef) done
Projecting the Hessian                  .... done
Forming the augmented Hessian           .... done
Diagonalizing the augmented Hessian     .... done
Last element of RFO vector              ....  0.915734977
Lowest eigenvalues of augmented Hessian:
 -0.062345035  0.007835462  0.033044048  0.033159447  0.036640215
Length of the computed step             ....  0.438754501
Warning: the length of the step is outside the trust region - taking restricted step instead
The input lambda is                     ....    -0.062345
   iter:   1  x=   -0.133187  g=    1.446952 f(x)=     0.102506
   iter:   2  x=   -0.186038  g=    0.650760 f(x)=     0.034393
   iter:   3  x=   -0.201222  g=    0.428129 f(x)=     0.006501
   iter:   4  x=   -0.202093  g=    0.385072 f(x)=     0.000335
[...]
  29   2.0000      -0.479322       -13.0430 
  30   2.0000      -0.473854       -12.8942 
  31   2.0000      -0.455379       -12.3915 
  32   2.0000      -0.445204       -12.1146 
  33   2.0000      -0.437867       -11.9150 
  34   2.0000      -0.419592       -11.4177 
  35   2.0000      -0.408793       -11.1238 
  36   2.0000      -0.397673       -10.8212 
  37   2.0000      -0.390625       -10.6294 
  38   2.0000      -0.378199       -10.2913 
  39   2.0000      -0.366250        -9.9662 
  40   2.0000      -0.363479        -9.8908 
  41   2.0000      -0.346426        -9.4267 
  42   2.0000      -0.338871        -9.2212 
  43   2.0000      -0.333310        -9.0698 
  44   2.0000      -0.321405        -8.7459 
  45   2.0000      -0.308676        -8.3995 
  46   2.0000      -0.291048        -7.9198 
  47   2.0000      -0.275732        -7.5030 
  48   2.0000      -0.257763        -7.0141 
  49   2.0000      -0.252423        -6.8688 
  50   2.0000      -0.232534        -6.3276 
  51   0.0000       0.062007         1.6873 
  52   0.0000       0.083330         2.2675 
  53   0.0000       0.090315         2.4576 
  54   0.0000       0.099354         2.7035 
  55   0.0000       0.106923         2.9095 
  56   0.0000       0.119206         3.2438 
  57   0.0000       0.127618         3.4727 
  58   0.0000       0.130634         3.5547 
  59   0.0000       0.136757         3.7213 
  60   0.0000       0.148580         4.0431 
  61   0.0000       0.151955         4.1349 
  62   0.0000       0.156724         4.2647 
  63   0.0000       0.162448         4.4204 
  64   0.0000       0.166847         4.5401 
  65   0.0000       0.172830         4.7029 
  66   0.0000       0.178774         4.8647 
  67   0.0000       0.192189         5.2297 
  68   0.0000       0.199939         5.4406 
  69   0.0000       0.206776         5.6267 
  70   0.0000       0.213381         5.8064 
  71   0.0000       0.221793         6.0353 
  72   0.0000       0.230898         6.2831 
  73   0.0000       0.240413         6.5420 
  74   0.0000       0.247716         6.7407 
  75   0.0000       0.253915         6.9094 
  76   0.0000       0.270965         7.3733 
  77   0.0000       0.282599         7.6899 
  78   0.0000       0.287891         7.8339 
  79   0.0000       0.311559         8.4780 
  80   0.0000       0.317653         8.6438 
  81   0.0000       0.524375        14.2690 
  82   0.0000       0.540624        14.7111 
  83   0.0000       0.548100        14.9146 
  84   0.0000       0.557643        15.1742 
  85   0.0000       0.561758        15.2862 
  86   0.0000       0.565802        15.3963 
  87   0.0000       0.575284        15.6543 
  88   0.0000       0.587707        15.9923 
  89   0.0000       0.591515        16.0959 
  90   0.0000       0.597528        16.2596 
  91   0.0000       0.616121        16.7655 
  92   0.0000       0.620712        16.8904 
  93   0.0000       0.628953        17.1147 
  94   0.0000       0.637719        17.3532 
  95   0.0000       0.653039        17.7701 
  96   0.0000       0.662073        18.0159 
  97   0.0000       0.676989        18.4218 
  98   0.0000       0.688107        18.7243 
  99   0.0000       0.704520        19.1710 
 100   0.0000       0.750529        20.4229 
 101   0.0000       0.780381        21.2352 
 102   0.0000       0.808847        22.0098 
 103   0.0000       0.822286        22.3755 
 104   0.0000       0.832996        22.6670 
 105   0.0000       0.838739        22.8232 
 106   0.0000       0.853822        23.2337 
 107   0.0000       0.856200        23.2984 
 108   0.0000       0.863302        23.4916 
 109   0.0000       0.887711        24.1559 
 110   0.0000       0.891154        24.2495 
 111   0.0000       0.899529        24.4774 
 112   0.0000       0.905607        24.6428 
 113   0.0000       0.918127        24.9835 
 114   0.0000       0.920827        25.0570 
 115   0.0000       0.926116        25.2009 
 116   0.0000       0.943024        25.6610 
 117   0.0000       0.949503        25.8373 
 118   0.0000       0.953555        25.9475 
 119   0.0000       0.966157        26.2905 
 120   0.0000       0.974101        26.5066 
 121   0.0000       0.977770        26.6065 
 122   0.0000       0.992899        27.0181 
 123   0.0000       1.024262        27.8716 
 124   0.0000       1.034115        28.1397 
 125   0.0000       1.062100        28.9012 
 126   0.0000       1.079815        29.3833 
 127   0.0000       1.114695        30.3324 
 128   0.0000       1.126869        30.6637 
 129   0.0000       1.159680        31.5565 
 130   0.0000       1.203485        32.7485 
 131   0.0000       1.243623        33.8407 
 132   0.0000       1.294162        35.2159 
 133   0.0000       1.310994        35.6740 
 134   0.0000       1.329347        36.1734 
 135   0.0000       1.364096        37.1189 
 136   0.0000       1.383441        37.6453 
 137   0.0000       1.419238        38.6194 
 138   0.0000       1.459869        39.7250 
 139   0.0000       1.463802        39.8321 
 140   0.0000       1.552273        42.2395 
 141   0.0000       1.597260        43.4637 
 142   0.0000       1.670626        45.4601 
 143   0.0000       1.717743        46.7422 
 144   0.0000       1.719858        46.7997 
 145   0.0000       1.911756        52.0215 
 146   0.0000       1.972033        53.6617 
 147   0.0000       2.068458        56.2856 
 148   0.0000       2.194829        59.7243 

                    ********************************
                    * MULLIKEN POPULATION ANALYSIS *
                    ********************************

-----------------------
MULLIKEN ATOMIC CHARGES
-----------------------
   0 C :    0.279731
   1 C :   -0.253536
   2 C :   -0.295446
   3 C :   -0.001243
   4 O :   -0.511517
   5 H :    0.181088
   6 H :    0.140550
   7 H :    0.146902
   8 H :    0.133957
   9 H :    0.159586
  10 H :    0.141541
  11 H :    0.137731
  12 C :    0.017111
  13 H :    0.150293
  14 H :    0.122424
  15 O :   -0.541030
  16 C :    0.041077
  17 C :    0.083422
  18 C :   -0.294986
  19 C :   -0.030195
  20 O :   -0.518435
  21 H :    0.184869
  22 O :   -0.602138
  23 H :    0.153177
  24 H :    0.163028
  25 H :    0.146736
  26 H :    0.144364
  27 H :    0.152834
  28 H :    0.368104
Sum of atomic charges:    0.0000000

--------------------------------
MULLIKEN REDUCED ORBITAL CHARGES
--------------------------------
  0 C s       :     3.206952  s :     3.206952
      pz      :     0.841632  p :     2.513317
      px      :     0.667509
      py      :     1.004175
  1 C s       :     3.301126  s :     3.301126
      pz      :     0.974823  p :     2.952410
      px      :     1.049012
      py      :     0.928576
  2 C s       :     3.312806  s :     3.312806
      pz      :     0.915828  p :     2.982639
      px      :     1.076533
      py      :     0.990279
  3 C s       :     3.258712  s :     3.258712
      pz      :     0.919980  p :     2.742531
      px      :     1.067269
      py      :     0.755282
  4 O s       :     3.939689  s :     3.939689
      pz      :     1.292405  p :     4.571828
      px      :     1.751935
      py      :     1.527488
  5 H s       :     0.818912  s :     0.818912
  6 H s       :     0.859450  s :     0.859450
  7 H s       :     0.853098  s :     0.853098
  8 H s       :     0.866043  s :     0.866043
  9 H s       :     0.840414  s :     0.840414
 10 H s       :     0.858459  s :     0.858459
 11 H s       :     0.862269  s :     0.862269
 12 C s       :     3.247669  s :     3.247669
      pz      :     1.051611  p :     2.735220
      px      :     0.905427
      py      :     0.778182
 13 H s       :     0.849707  s :     0.849707
 14 H s       :     0.877576  s :     0.877576
 15 O s       :     3.915252  s :     3.915252
      pz      :     1.836032  p :     4.625778
      px      :     1.259762
      py      :     1.529985
 16 C s       :     3.279504  s :     3.279504
      pz      :     1.001889  p :     2.679418
      px      :     0.758785
      py      :     0.918744
 17 C s       :     3.266156  s :     3.266156
      pz      :     0.862889  p :     2.650422
      px      :     1.040123
      py      :     0.747409
 18 C s       :     3.314483  s :     3.314483
      pz      :     0.941282  p :     2.980503
      px      :     0.940212
      py      :     1.099009
 19 C s       :     3.268256  s :     3.268256
      pz      :     0.817141  p :     2.761939
      px      :     0.949488
      py      :     0.995310
 20 O s       :     3.948245  s :     3.948245
      pz      :     1.335689  p :     4.570190
      px      :     1.503842
      py      :     1.730659
 21 H s       :     0.815131  s :     0.815131
 22 O s       :     3.920175  s :     3.920175
      pz      :     1.783681  p :     4.681963
      px      :     1.362693
      py      :     1.535589
 23 H s       :     0.846823  s :     0.846823
 24 H s       :     0.836972  s :     0.836972
 25 H s       :     0.853264  s :     0.853264
 26 H s       :     0.855636  s :     0.855636
 27 H s       :     0.847166  s :     0.847166
 28 H s       :     0.631896  s :     0.631896


                     *******************************
                     * LOEWDIN POPULATION ANALYSIS *
                     *******************************

----------------------
LOEWDIN ATOMIC CHARGES
----------------------
   0 C :    0.168060
   1 C :   -0.215733
   2 C :   -0.216104
   3 C :   -0.029342
   4 O :   -0.325836
   5 H :    0.117171
   6 H :    0.111178
   7 H :    0.119079
   8 H :    0.109821
   9 H :    0.117826
  10 H :    0.102242
  11 H :    0.099887
  12 C :   -0.035834
  13 H :    0.114989
  14 H :    0.090200
  15 O :   -0.333380
  16 C :    0.003085
  17 C :    0.039312
  18 C :   -0.240585
  19 C :   -0.039551
  20 O :   -0.323687
  21 H :    0.127135
  22 O :   -0.412429
  23 H :    0.116380
  24 H :    0.127506
  25 H :    0.113774
  26 H :    0.103431
  27 H :    0.105870
  28 H :    0.285537

-------------------------------
LOEWDIN REDUCED ORBITAL CHARGES
-------------------------------
  0 C s       :     2.955941  s :     2.955941
      pz      :     0.947957  p :     2.875999
      px      :     0.833059
      py      :     1.094983
  1 C s       :     2.976349  s :     2.976349
      pz      :     1.072616  p :     3.239384
      px      :     1.115933
      py      :     1.050835
  2 C s       :     2.971501  s :     2.971501
      pz      :     1.036047  p :     3.244603
      px      :     1.129974
      py      :     1.078582
  3 C s       :     2.983334  s :     2.983334
      pz      :     1.021703  p :     3.046008
      px      :     1.130717
      py      :     0.893587
  4 O s       :     3.601373  s :     3.601373
      pz      :     1.360875  p :     4.724463
      px      :     1.788175
      py      :     1.575414
  5 H s       :     0.882829  s :     0.882829
  6 H s       :     0.888822  s :     0.888822
  7 H s       :     0.880921  s :     0.880921
  8 H s       :     0.890179  s :     0.890179
  9 H s       :     0.882174  s :     0.882174
 10 H s       :     0.897758  s :     0.897758
 11 H s       :     0.900113  s :     0.900113
 12 C s       :     2.972179  s :     2.972179
      pz      :     1.120043  p :     3.063656
      px      :     1.003949
      py      :     0.939664
 13 H s       :     0.885011  s :     0.885011
 14 H s       :     0.909800  s :     0.909800
 15 O s       :     3.572908  s :     3.572908
      pz      :     1.861473  p :     4.760472
      px      :     1.336140
      py      :     1.562858
 16 C s       :     2.968203  s :     2.968203
      pz      :     1.050114  p :     3.028712
      px      :     0.917499
      py      :     1.061099
 17 C s       :     2.952303  s :     2.952303
      pz      :     1.003049  p :     3.008385
      px      :     1.097549
      py      :     0.907787
 18 C s       :     2.985195  s :     2.985195
      pz      :     1.061579  p :     3.255390
      px      :     1.059391
      py      :     1.134421
 19 C s       :     2.984873  s :     2.984873
      pz      :     0.930552  p :     3.054678
      px      :     1.059803
      py      :     1.064323
 20 O s       :     3.607143  s :     3.607143
      pz      :     1.399019  p :     4.716544
      px      :     1.559107
      py      :     1.758419
 21 H s       :     0.872865  s :     0.872865
 22 O s       :     3.612119  s :     3.612119
      pz      :     1.808431  p :     4.800311
      px      :     1.411710
      py      :     1.580170
 23 H s       :     0.883620  s :     0.883620
 24 H s       :     0.872494  s :     0.872494
 25 H s       :     0.886226  s :     0.886226
 26 H s       :     0.896569  s :     0.896569
 27 H s       :     0.894130  s :     0.894130
 28 H s       :     0.714463  s :     0.714463


                      *****************************
                      * MAYER POPULATION ANALYSIS *
                      *****************************

  NA   - Mulliken gross atomic population
  ZA   - Total nuclear charge
  QA   - Mulliken gross atomic charge
  VA   - Mayer's total valence
  BVA  - Mayer's bonded valence
  FA   - Mayer's free valence

  ATOM       NA         ZA         QA         VA         BVA        FA
  0 C      5.7203     6.0000     0.2797     3.6200     3.6200    -0.0000
  1 C      6.2535     6.0000    -0.2535     3.7328     3.7328    -0.0000
  2 C      6.2954     6.0000    -0.2954     3.7684     3.7684     0.0000
  3 C      6.0012     6.0000    -0.0012     3.6713     3.6713     0.0000
  4 O      8.5115     8.0000    -0.5115     1.7790     1.7790    -0.0000
  5 H      0.8189     1.0000     0.1811     0.9422     0.9422     0.0000
  6 H      0.8594     1.0000     0.1406     0.9331     0.9331     0.0000
  7 H      0.8531     1.0000     0.1469     0.9431     0.9431    -0.0000
  8 H      0.8660     1.0000     0.1340     0.9377     0.9377     0.0000
  9 H      0.8404     1.0000     0.1596     0.9350     0.9350     0.0000
 10 H      0.8585     1.0000     0.1415     0.9277     0.9277    -0.0000
 11 H      0.8623     1.0000     0.1377     0.9295     0.9295     0.0000
 12 C      5.9829     6.0000     0.0171     3.6547     3.6547    -0.0000
 13 H      0.8497     1.0000     0.1503     0.9301     0.9301    -0.0000
 14 H      0.8776     1.0000     0.1224     0.9319     0.9319     0.0000
 15 O      8.5410     8.0000    -0.5410     1.7321     1.7321    -0.0000
 16 C      5.9589     6.0000     0.0411     3.5779     3.5779    -0.0000
 17 C      5.9166     6.0000     0.0834     3.6389     3.6389     0.0000
 18 C      6.2950     6.0000    -0.2950     3.6900     3.6900    -0.0000
 19 C      6.0302     6.0000    -0.0302     3.6628     3.6628     0.0000
 20 O      8.5184     8.0000    -0.5184     1.7791     1.7791    -0.0000
 21 H      0.8151     1.0000     0.1849     0.9331     0.9331     0.0000
 22 O      8.6021     8.0000    -0.6021     1.7447     1.7447    -0.0000
 23 H      0.8468     1.0000     0.1532     0.9356     0.9356    -0.0000
 24 H      0.8370     1.0000     0.1630     0.9399     0.9399    -0.0000
 25 H      0.8533     1.0000     0.1467     0.9365     0.9365    -0.0000
 26 H      0.8556     1.0000     0.1444     0.9277     0.9277    -0.0000
 27 H      0.8472     1.0000     0.1528     0.9273     0.9273     0.0000
 28 H      0.6319     1.0000     0.3681     0.8304     0.8304     0.0000

  Mayer bond orders larger than 0.100000
B(  0-C ,  1-C ) :   0.9433 B(  0-C ,  4-O ) :   0.9002 B(  0-C ,  5-H ) :   0.9007 
B(  0-C , 15-O ) :   0.8311 B(  1-C ,  2-C ) :   0.9561 B(  1-C ,  6-H ) :   0.9418 
B(  1-C ,  7-H ) :   0.9385 B(  2-C ,  3-C ) :   0.9549 B(  2-C ,  8-H ) :   0.9465 
B(  2-C ,  9-H ) :   0.9443 B(  3-C ,  4-O ) :   0.8454 B(  3-C , 10-H ) :   0.9361 
B(  3-C , 11-H ) :   0.9404 B( 12-C , 13-H ) :   0.9260 B( 12-C , 14-H ) :   0.9241 
B( 12-C , 15-O ) :   0.8614 B( 12-C , 16-C ) :   0.8990 B( 16-C , 17-C ) :   0.8943 
B( 16-C , 20-O ) :   0.8358 B( 16-C , 21-H ) :   0.9163 B( 17-C , 18-C ) :   0.9093 
B( 17-C , 22-O ) :   0.8941 B( 17-C , 23-H ) :   0.9338 B( 18-C , 19-C ) :   0.9426 
B( 18-C , 24-H ) :   0.9376 B( 18-C , 25-H ) :   0.9322 B( 19-C , 20-O ) :   0.8427 
B( 19-C , 26-H ) :   0.9349 B( 19-C , 27-H ) :   0.9373 B( 22-O , 28-H ) :   0.7926 


-------
TIMINGS
-------

Total SCF time: 0 days 0 hours 1 min 0 sec 

Total time                  ....      60.944 sec
Sum of individual times     ....      60.317 sec  ( 99.0%)

Fock matrix formation       ....      49.291 sec  ( 80.9%)
  XC integration            ....       6.430 sec  ( 13.0% of F)
    Basis function eval.    ....       1.961 sec  ( 30.5% of XC)
    Density eval.           ....       1.008 sec  ( 15.7% of XC)
    XC-Functional eval.     ....       0.429 sec  (  6.7% of XC)
    XC-Potential eval.      ....       1.133 sec  ( 17.6% of XC)
Diagonalization             ....       0.014 sec  (  0.0%)
Density matrix formation    ....       0.003 sec  (  0.0%)
Population analysis         ....       0.020 sec  (  0.0%)
Initial guess               ....       0.007 sec  (  0.0%)
Orbital Transformation      ....       0.000 sec  (  0.0%)
Orbital Orthonormalization  ....       0.005 sec  (  0.0%)
DIIS solution               ....       0.002 sec  (  0.0%)
SOSCF solution              ....       0.029 sec  (  0.0%)
Grid generation             ....      10.950 sec  ( 18.0%)

-------------------------   --------------------
FINAL SINGLE POINT ENERGY      -652.860620179062
-------------------------   --------------------

                                *** OPTIMIZATION RUN DONE ***

                            ***************************************
                            *     ORCA property calculations      *
                            ***************************************

                                    ---------------------
                                    Active property flags
                                    ---------------------
   (+) Dipole Moment


------------------------------------------------------------------------------
                       ORCA ELECTRIC PROPERTIES CALCULATION
------------------------------------------------------------------------------

Dipole Moment Calculation                       ... on
Quadrupole Moment Calculation                   ... off
Polarizability Calculation                      ... off
GBWName                                         ... project_8052/ensemble_270_30.gbw
Electron density file                           ... project_8052/ensemble_270_30.scfp
The origin for moment calculation is the CENTER OF MASS  = (-41.163954, 46.902077 87.395090)

-------------
DIPOLE MOMENT
-------------
                                X             Y             Z
Electronic contribution:     -0.00972      -3.60066       1.71200
Nuclear contribution   :     -0.17582       3.94998      -2.58340
                        -----------------------------------------
Total Dipole Moment    :     -0.18554       0.34932      -0.87140
                        -----------------------------------------
Magnitude (a.u.)       :      0.95697
Magnitude (Debye)      :      2.43241



--------------------
Rotational spectrum 
--------------------
 
Rotational constants in cm-1:     0.062606     0.013169     0.012810 
Rotational constants in MHz :  1876.887294   394.805536   384.042477 

 Dipole components along the rotational axes: 
x,y,z [a.u.] :    -0.027198    -0.939376     0.180598 
x,y,z [Debye]:    -0.069132    -2.387705     0.459043 

 

Timings for individual modules:

Sum of individual times         ...     1488.697 sec (=  24.812 min)
GTO integral calculation        ...        3.777 sec (=   0.063 min)   0.3 %
SCF iterations                  ...     1060.066 sec (=  17.668 min)  71.2 %
SCF Gradient evaluation         ...      419.892 sec (=   6.998 min)  28.2 %
Geometry relaxation             ...        4.962 sec (=   0.083 min)   0.3 %
                             ****ORCA TERMINATED NORMALLY****
TOTAL RUN TIME: 0 days 0 hours 25 minutes 1 seconds 187 msec
