
                                 *****************
                                 * O   R   C   A *
                                 *****************

           --- An Ab Initio, DFT and Semiempirical electronic structure package ---

                  #######################################################
                  #                        -***-                        #
                  #          Department of theory and spectroscopy      #
                  #               Directorship: Frank Neese             #
                  #        Max Planck Institute fuer Kohlenforschung    #
                  #                Kaiser Wilhelm Platz 1               #
                  #                 D-45470 Muelheim/Ruhr               #
                  #                      Germany                        #
                  #                                                     #
                  #                  All rights reserved                #
                  #                        -***-                        #
                  #######################################################


                         Program Version 4.2.0 -  RELEASE  -


 With contributions from (in alphabetic order):
   Daniel Aravena         : Magnetic Suceptibility
   Michael Atanasov       : Ab Initio Ligand Field Theory (pilot matlab implementation)
   Alexander A. Auer      : GIAO ZORA, VPT2
   Ute Becker             : Parallelization
   Giovanni Bistoni       : ED, misc. LED, open-shell LED, HFLED
   Martin Brehm           : Molecular dynamics
   Dmytro Bykov           : SCF Hessian
   Vijay G. Chilkuri      : MRCI spin determinant printing, contributions to CSF-ICE
   Dipayan Datta          : RHF DLPNO-CCSD density
   Achintya Kumar Dutta   : EOM-CC, STEOM-CC
   Dmitry Ganyushin       : Spin-Orbit,Spin-Spin,Magnetic field MRCI
   Miquel Garcia          : C-PCM Hessian, Gaussian charge scheme
   Yang Guo               : DLPNO-NEVPT2, CIM, IAO-localization
   Andreas Hansen         : Spin unrestricted coupled pair/coupled cluster methods
   Benjamin Helmich-Paris : CASSCF linear response (MC-RPA)
   Lee Huntington         : MR-EOM, pCC
   Robert Izsak           : Overlap fitted RIJCOSX, COSX-SCS-MP3, EOM
   Christian Kollmar      : KDIIS, OOCD, Brueckner-CCSD(T), CCSD density
   Simone Kossmann        : Meta GGA functionals, TD-DFT gradient, OOMP2, MP2 Hessian
   Martin Krupicka        : AUTO-CI
   Lucas Lang             : DCDCAS
   Dagmar Lenk            : GEPOL surface, SMD
   Dimitrios Liakos       : Extrapolation schemes; Compound Job, initial MDCI parallelization
   Dimitrios Manganas     : Further ROCIS development; embedding schemes
   Dimitrios Pantazis     : SARC Basis sets
   Taras Petrenko         : DFT Hessian,TD-DFT gradient, ASA, ECA, R-Raman, ABS, FL, XAS/XES, NRVS
   Peter Pinski           : DLPNO-MP2, DLPNO-MP2 Gradient
   Christoph Reimann      : Effective Core Potentials
   Marius Retegan         : Local ZFS, SOC
   Christoph Riplinger    : Optimizer, TS searches, QM/MM, DLPNO-CCSD(T), (RO)-DLPNO pert. Triples
   Tobias Risthaus        : Range-separated hybrids, TD-DFT gradient, RPA, STAB
   Michael Roemelt        : Original ROCIS implementation
   Masaaki Saitow         : Open-shell DLPNO-CCSD energy and density
   Barbara Sandhoefer     : DKH picture change effects
   Avijit Sen             : IP-ROCIS
   Kantharuban Sivalingam : CASSCF convergence, NEVPT2, FIC-MRCI
   Bernardo de Souza      : ESD, SOC TD-DFT
   Georgi Stoychev        : AutoAux, RI-MP2 NMR
   Willem Van den Heuvel  : Paramagnetic NMR
   Boris Wezisla          : Elementary symmetry handling
   Frank Wennmohs         : Technical directorship


 We gratefully acknowledge several colleagues who have allowed us to
 interface, adapt or use parts of their codes:
   Stefan Grimme, W. Hujo, H. Kruse,             : VdW corrections, initial TS optimization,
                  C. Bannwarth                     DFT functionals, gCP, sTDA/sTD-DF
   Ed Valeev, F. Pavosevic, A. Kumar             : LibInt (2-el integral package), F12 methods
   Garnet Chan, S. Sharma, J. Yang, R. Olivares  : DMRG
   Ulf Ekstrom                                   : XCFun DFT Library
   Mihaly Kallay                                 : mrcc  (arbitrary order and MRCC methods)
   Andreas Klamt, Michael Diedenhofen            : otool_cosmo (COSMO solvation model)
   Jiri Pittner, Ondrej Demel                    : Mk-CCSD
   Frank Weinhold                                : gennbo (NPA and NBO analysis)
   Christopher J. Cramer and Donald G. Truhlar   : smd solvation model
   Lars Goerigk                                  : TD-DFT with DH, B97 family of functionals
   V. Asgeirsson, H. Jonsson                     : NEB implementation
   FAccTs GmbH                                   : IRC, NEB, NEB-TS, Multilevel, MM, QM/MM, CI optimization
   S Lehtola, MJT Oliveira, MAL Marques          : LibXC Library


 Your calculation uses the libint2 library for the computation of 2-el integrals
 For citations please refer to: http://libint.valeyev.net

 Your ORCA version has been built with support for libXC version: 4.2.3
 For citations please refer to: https://tddft.org/programs/libxc/

 This ORCA versions uses:
   CBLAS   interface :  Fast vector & matrix operations
   LAPACKE interface :  Fast linear algebra routines
   SCALAPACK package :  Parallel linear algebra routines


----- Orbital basis set information -----
Your calculation utilizes the basis: 6-31G
   H-He, Li-Ne : W. J. Hehre, R. Ditchfield and J.A. Pople, J. Chem. Phys. 56, 2257 (1972).
                 Note: He and Ne are unpublished basis sets taken from the Gaussian program.
                 Note: Li and B from J. D. Dill and J. A. Pople, J. Chem. Phys. 62, 2921 (1975).
   Na - Ar     : M. M. Francl, W. J. Pietro, W. J. Hehre, J. S. Binkley, M. S. Gordon, 
                 D. J. DeFrees and J. A. Pople, J. Chem. Phys. 77, 3654 (1982).
   K - Zn      : V. A. Rassolov, J. A. Pople, M. A. Ratner, and T. L. Windus, J. Chem. Phys. 109, 1223 (1998).

================================================================================
                                        WARNINGS
                       Please study these warnings very carefully!
================================================================================


WARNING: Geometry Optimization
  ===> : Switching off AutoStart
         For restart on a previous wavefunction, please use MOREAD

INFO   : the flag for use of LIBINT has been found!

================================================================================
                                       INPUT FILE
================================================================================
NAME = project_8050/ensemble_180_30.inp
|  1> # Test redundant internal optimization
|  2> #
|  3> ! RKS B3LYP  Opt TightSCF SmallPrint
|  4> 
|  5> %basis
|  6>         Basis "6-31G"
|  7> end
|  8> 
|  9> %geom
| 10> Constraints
| 11> { D 4  0  15  12  180.0   C } # D for Dihedral angle
| 12> { D 0  15  12  16  30.0   C } # D for Dihedral angle
| 13> { D 0  4  3  2   C } # D for Dihedral angle
| 14> { D 4  3  2  1   C } # D for Dihedral angle
| 15> { D 3  2  1  0   C } # D for Dihedral angle
| 16> { D 2  1  0  4   C } # D for Dihedral angle
| 17> { D 1  0  4  3   C } # D for Dihedral angle
| 18> { D 16  20  19  18   C } # D for Dihedral angle
| 19> { D 20  19  18  17   C } # D for Dihedral angle
| 20> { D 19  18  17  16   C } # D for Dihedral angle
| 21> { D 18  17  16  20   C } # D for Dihedral angle
| 22> { D 17  16  20  19   C } # D for Dihedral angle
| 23> { D 15  12  16  20   C } # D for Dihedral angle
| 24> end
| 25> end
| 26> 
| 27> 
| 28> #%pal 
| 29> #nprocs 8
| 30> #end
| 31> 
| 32> * xyz 0 1
| 33> C  -21.048   26.222   46.251
| 34> C  -20.361   27.558   45.944
| 35> C  -20.329   28.222   47.341
| 36> C  -20.110   27.022   48.296
| 37> O  -20.473   25.807   47.535
| 38> H  -20.833   25.428   45.533
| 39> H  -19.344   27.382   45.576
| 40> H  -20.898   28.157   45.201
| 41> H  -19.543   28.978   47.434
| 42> H  -21.289   28.710   47.548
| 43> H  -20.733   27.082   49.195
| 44> H  -19.064   26.913   48.597
| 45> C  -23.309   26.834   45.072
| 46> H  -24.332   26.437   45.074
| 47> H  -23.365   27.928   45.015
| 48> O  -22.586   26.394   46.375
| 49> C  -22.592   26.329   43.789
| 50> C  -22.618   24.799   43.702
| 51> C  -24.054   24.539   43.188
| 52> C  -24.312   25.738   42.242
| 53> O  -23.315   26.772   42.591
| 54> H  -21.594   26.768   43.740
| 55> O  -21.568   24.307   42.668
| 56> H  -22.413   24.310   44.660
| 57> H  -24.154   23.575   42.679
| 58> H  -24.761   24.549   44.027
| 59> H  -25.318   26.155   42.359
| 60> H  -24.156   25.481   41.191
| 61> H  -21.754   24.784   41.698
| 62> *
| 63> 
| 64>                          ****END OF INPUT****
================================================================================

                       *****************************
                       * Geometry Optimization Run *
                       *****************************

Geometry optimization settings:
Update method            Update   .... BFGS
Choice of coordinates    CoordSys .... Z-matrix Internals
Initial Hessian          InHess   .... Almoef's Model

Convergence Tolerances:
Energy Change            TolE     ....  5.0000e-06 Eh
Max. Gradient            TolMAXG  ....  3.0000e-04 Eh/bohr
RMS Gradient             TolRMSG  ....  1.0000e-04 Eh/bohr
Max. Displacement        TolMAXD  ....  4.0000e-03 bohr
RMS Displacement         TolRMSD  ....  2.0000e-03 bohr
Strict Convergence                ....  False
------------------------------------------------------------------------------
                        ORCA OPTIMIZATION COORDINATE SETUP
------------------------------------------------------------------------------

The optimization will be done in new redundant internal coordinates
Making redundant internal coordinates   ...  (new redundants) done
Evaluating the initial hessian          ...  (Almloef) done
Evaluating the coordinates              ...  done
Calculating the B-matrix                .... done
Calculating the G-matrix                .... done
Diagonalizing the G-matrix              .... done
Imposing constraints:
 Iter   0:  RMS(Cart)=    0.0001429730 RMS(Int)=    0.0000571687
 Iter   1:  RMS(Cart)=    0.0000708621 RMS(Int)=    0.0000310258
 Iter   2:  RMS(Cart)=    0.0000374137 RMS(Int)=    0.0000184494
 Iter   3:  RMS(Cart)=    0.0000211838 RMS(Int)=    0.0000120771
 Iter   4:  RMS(Cart)=    0.0000127983 RMS(Int)=    0.0000086456
 Iter   5:  RMS(Cart)=    0.0000081548 RMS(Int)=    0.0000067080
 Iter   6:  RMS(Cart)=    0.0000054193 RMS(Int)=    0.0000055844
 Iter   7:  RMS(Cart)=    0.0000037303 RMS(Int)=    0.0000049188
 Iter   8:  RMS(Cart)=    0.0000026544 RMS(Int)=    0.0000045093
 Iter   9:  RMS(Cart)=    0.0000019569 RMS(Int)=    0.0000042402
 Iter  10:  RMS(Cart)=    0.0000015016 RMS(Int)=    0.0000040468
 Iter  11:  RMS(Cart)=    0.0000012045 RMS(Int)=    0.0000038944
 Iter  12:  RMS(Cart)=    0.0000010106 RMS(Int)=    0.0000037647
 Iter  13:  RMS(Cart)=    0.0000008830 RMS(Int)=    0.0000036482
 Iter  14:  RMS(Cart)=    0.0000007970 RMS(Int)=    0.0000035400
 Iter  15:  RMS(Cart)=    0.0000007367 RMS(Int)=    0.0000034376
 Iter  16:  RMS(Cart)=    0.0000006921 RMS(Int)=    0.0000033397
 Iter  17:  RMS(Cart)=    0.0000006572 RMS(Int)=    0.0000032454
 Iter  18:  RMS(Cart)=    0.0000006284 RMS(Int)=    0.0000031543
 Iter  19:  RMS(Cart)=    0.0000006036 RMS(Int)=    0.0000030662
 Iter  20:  RMS(Cart)=    0.0000005814 RMS(Int)=    0.0000029810
 Iter  21:  RMS(Cart)=    0.0000005612 RMS(Int)=    0.0000028984
 Iter  22:  RMS(Cart)=    0.0000005424 RMS(Int)=    0.0000028185
 Iter  23:  RMS(Cart)=    0.0000005248 RMS(Int)=    0.0000027410
 Iter  24:  RMS(Cart)=    0.0000005080 RMS(Int)=    0.0000026658
 Iter  25:  RMS(Cart)=    0.0000004920 RMS(Int)=    0.0000025930
 Iter  26:  RMS(Cart)=    0.0000004767 RMS(Int)=    0.0000025225
 Iter  27:  RMS(Cart)=    0.0000004620 RMS(Int)=    0.0000024541
 Iter  28:  RMS(Cart)=    0.0000004479 RMS(Int)=    0.0000023877
 Iter  29:  RMS(Cart)=    0.0000004342 RMS(Int)=    0.0000023234
 Iter  30:  RMS(Cart)=    0.0000004210 RMS(Int)=    0.0000022611
 Iter  31:  RMS(Cart)=    0.0000004083 RMS(Int)=    0.0000022006
 Iter  32:  RMS(Cart)=    0.0000003960 RMS(Int)=    0.0000021420
 Iter  33:  RMS(Cart)=    0.0000003841 RMS(Int)=    0.0000020851
 Iter  34:  RMS(Cart)=    0.0000003726 RMS(Int)=    0.0000020299
 Iter  35:  RMS(Cart)=    0.0000003615 RMS(Int)=    0.0000019764
 Iter  36:  RMS(Cart)=    0.0000003507 RMS(Int)=    0.0000019245
 Iter  37:  RMS(Cart)=    0.0000003403 RMS(Int)=    0.0000018741
 Iter  38:  RMS(Cart)=    0.0000003302 RMS(Int)=    0.0000018253
 Iter  39:  RMS(Cart)=    0.0000003205 RMS(Int)=    0.0000017779
 Iter  40:  RMS(Cart)=    0.0000003110 RMS(Int)=    0.0000017319
 Iter  41:  RMS(Cart)=    0.0000003019 RMS(Int)=    0.0000016872
 Iter  42:  RMS(Cart)=    0.0000002930 RMS(Int)=    0.0000016439
 Iter  43:  RMS(Cart)=    0.0000002844 RMS(Int)=    0.0000016018
 Iter  44:  RMS(Cart)=    0.0000002761 RMS(Int)=    0.0000015610
 Iter  45:  RMS(Cart)=    0.0000002681 RMS(Int)=    0.0000015214
 Iter  46:  RMS(Cart)=    0.0000002603 RMS(Int)=    0.0000014829
 Iter  47:  RMS(Cart)=    0.0000002527 RMS(Int)=    0.0000014456
 Iter  48:  RMS(Cart)=    0.0000002454 RMS(Int)=    0.0000014093
 Iter  49:  RMS(Cart)=    0.0000002383 RMS(Int)=    0.0000013741
 Iter  50:  RMS(Cart)=    0.0000002315 RMS(Int)=    0.0000013399
 Iter  51:  RMS(Cart)=    0.0000002248 RMS(Int)=    0.0000013067
 Iter  52:  RMS(Cart)=    0.0000002184 RMS(Int)=    0.0000012745
 Iter  53:  RMS(Cart)=    0.0000002122 RMS(Int)=    0.0000012432
 Iter  54:  RMS(Cart)=    0.0000002061 RMS(Int)=    0.0000012127
 Iter  55:  RMS(Cart)=    0.0000002002 RMS(Int)=    0.0000011832
 Iter  56:  RMS(Cart)=    0.0000001946 RMS(Int)=    0.0000011545
 Iter  57:  RMS(Cart)=    0.0000001891 RMS(Int)=    0.0000011266
 Iter  58:  RMS(Cart)=    0.0000001837 RMS(Int)=    0.0000010995
 Iter  59:  RMS(Cart)=    0.0000001785 RMS(Int)=    0.0000010732
 Iter  60:  RMS(Cart)=    0.0000001735 RMS(Int)=    0.0000010476
 Iter  61:  RMS(Cart)=    0.0000001687 RMS(Int)=    0.0000010227
 Iter  62:  RMS(Cart)=    0.0000001640 RMS(Int)=    0.0000009985
 Iter  63:  RMS(Cart)=    0.0000001594 RMS(Int)=    0.0000009751
 Iter  64:  RMS(Cart)=    0.0000001550 RMS(Int)=    0.0000009522
 Iter  65:  RMS(Cart)=    0.0000001507 RMS(Int)=    0.0000009300
 Iter  66:  RMS(Cart)=    0.0000001465 RMS(Int)=    0.0000009085
 Iter  67:  RMS(Cart)=    0.0000001425 RMS(Int)=    0.0000008875
 Iter  68:  RMS(Cart)=    0.0000001385 RMS(Int)=    0.0000008671
 Iter  69:  RMS(Cart)=    0.0000001348 RMS(Int)=    0.0000008473
 Iter  70:  RMS(Cart)=    0.0000001311 RMS(Int)=    0.0000008280
 Iter  71:  RMS(Cart)=    0.0000001275 RMS(Int)=    0.0000008092
 Iter  72:  RMS(Cart)=    0.0000001240 RMS(Int)=    0.0000007910
 Iter  73:  RMS(Cart)=    0.0000001207 RMS(Int)=    0.0000007733
 Iter  74:  RMS(Cart)=    0.0000001174 RMS(Int)=    0.0000007560
 Iter  75:  RMS(Cart)=    0.0000001142 RMS(Int)=    0.0000007392
 Iter  76:  RMS(Cart)=    0.0000001112 RMS(Int)=    0.0000007229
 Iter  77:  RMS(Cart)=    0.0000001082 RMS(Int)=    0.0000007070
 Iter  78:  RMS(Cart)=    0.0000001053 RMS(Int)=    0.0000006915
 Iter  79:  RMS(Cart)=    0.0000001025 RMS(Int)=    0.0000006765
 Iter  80:  RMS(Cart)=    0.0000000998 RMS(Int)=    0.0000006618
 Iter  81:  RMS(Cart)=    0.0000000971 RMS(Int)=    0.0000006476
 Iter  82:  RMS(Cart)=    0.0000000946 RMS(Int)=    0.0000006337
 Iter  83:  RMS(Cart)=    0.0000000921 RMS(Int)=    0.0000006202
 Iter  84:  RMS(Cart)=    0.0000000896 RMS(Int)=    0.0000006071
 Iter  85:  RMS(Cart)=    0.0000000873 RMS(Int)=    0.0000005943
 Iter  86:  RMS(Cart)=    0.0000000850 RMS(Int)=    0.0000005818
 Iter  87:  RMS(Cart)=    0.0000000828 RMS(Int)=    0.0000005697
 Iter  88:  RMS(Cart)=    0.0000000807 RMS(Int)=    0.0000005579
 Iter  89:  RMS(Cart)=    0.0000000786 RMS(Int)=    0.0000005464
 Iter  90:  RMS(Cart)=    0.0000000766 RMS(Int)=    0.0000005352
 Iter  91:  RMS(Cart)=    0.0000000746 RMS(Int)=    0.0000005243
 Iter  92:  RMS(Cart)=    0.0000000727 RMS(Int)=    0.0000005136
 Iter  93:  RMS(Cart)=    0.0000000708 RMS(Int)=    0.0000005033
 Iter  94:  RMS(Cart)=    0.0000000690 RMS(Int)=    0.0000004932
 Iter  95:  RMS(Cart)=    0.0000000673 RMS(Int)=    0.0000004833
 Iter  96:  RMS(Cart)=    0.0000000656 RMS(Int)=    0.0000004738
 Iter  97:  RMS(Cart)=    0.0000000639 RMS(Int)=    0.0000004644
 Iter  98:  RMS(Cart)=    0.0000000623 RMS(Int)=    0.0000004553
 Iter  99:  RMS(Cart)=    0.0000000608 RMS(Int)=    0.0000004464
 RMS(Cart) too big - taking linear step, building new B-matrix and trying again
Imposing constraints:
 Iter   0:  RMS(Cart)=    0.0000708630 RMS(Int)=    0.0000310257
 Iter   1:  RMS(Cart)=    0.0000374144 RMS(Int)=    0.0000184493
 Iter   2:  RMS(Cart)=    0.0000211843 RMS(Int)=    0.0000120770
 Iter   3:  RMS(Cart)=    0.0000127987 RMS(Int)=    0.0000086455
 Iter   4:  RMS(Cart)=    0.0000081550 RMS(Int)=    0.0000067079
 Iter   5:  RMS(Cart)=    0.0000054194 RMS(Int)=    0.0000055843
 Iter   6:  RMS(Cart)=    0.0000037304 RMS(Int)=    0.0000049187
 Iter   7:  RMS(Cart)=    0.0000026544 RMS(Int)=    0.0000045093
 Iter   8:  RMS(Cart)=    0.0000019569 RMS(Int)=    0.0000042401
 Iter   9:  RMS(Cart)=    0.0000015016 RMS(Int)=    0.0000040467
 Iter  10:  RMS(Cart)=    0.0000012044 RMS(Int)=    0.0000038943
 Iter  11:  RMS(Cart)=    0.0000010105 RMS(Int)=    0.0000037646
 Iter  12:  RMS(Cart)=    0.0000008829 RMS(Int)=    0.0000036482
 Iter  13:  RMS(Cart)=    0.0000007970 RMS(Int)=    0.0000035400
 Iter  14:  RMS(Cart)=    0.0000007367 RMS(Int)=    0.0000034376
 Iter  15:  RMS(Cart)=    0.0000006921 RMS(Int)=    0.0000033397
 Iter  16:  RMS(Cart)=    0.0000006571 RMS(Int)=    0.0000032454
 Iter  17:  RMS(Cart)=    0.0000006283 RMS(Int)=    0.0000031543
 Iter  18:  RMS(Cart)=    0.0000006035 RMS(Int)=    0.0000030663
 Iter  19:  RMS(Cart)=    0.0000005814 RMS(Int)=    0.0000029810
 Iter  20:  RMS(Cart)=    0.0000005612 RMS(Int)=    0.0000028985
 Iter  21:  RMS(Cart)=    0.0000005424 RMS(Int)=    0.0000028185
 Iter  22:  RMS(Cart)=    0.0000005247 RMS(Int)=    0.0000027410
 Iter  23:  RMS(Cart)=    0.0000005080 RMS(Int)=    0.0000026659
 Iter  24:  RMS(Cart)=    0.0000004920 RMS(Int)=    0.0000025931
 Iter  25:  RMS(Cart)=    0.0000004767 RMS(Int)=    0.0000025225
 Iter  26:  RMS(Cart)=    0.0000004620 RMS(Int)=    0.0000024541
 Iter  27:  RMS(Cart)=    0.0000004479 RMS(Int)=    0.0000023878
 Iter  28:  RMS(Cart)=    0.0000004342 RMS(Int)=    0.0000023235
 Iter  29:  RMS(Cart)=    0.0000004210 RMS(Int)=    0.0000022611
 Iter  30:  RMS(Cart)=    0.0000004083 RMS(Int)=    0.0000022007
 Iter  31:  RMS(Cart)=    0.0000003960 RMS(Int)=    0.0000021420
 Iter  32:  RMS(Cart)=    0.0000003841 RMS(Int)=    0.0000020851
 Iter  33:  RMS(Cart)=    0.0000003726 RMS(Int)=    0.0000020300
 Iter  34:  RMS(Cart)=    0.0000003615 RMS(Int)=    0.0000019765
 Iter  35:  RMS(Cart)=    0.0000003507 RMS(Int)=    0.0000019246
 Iter  36:  RMS(Cart)=    0.0000003403 RMS(Int)=    0.0000018742
 Iter  37:  RMS(Cart)=    0.0000003302 RMS(Int)=    0.0000018253
 Iter  38:  RMS(Cart)=    0.0000003205 RMS(Int)=    0.0000017779
 Iter  39:  RMS(Cart)=    0.0000003110 RMS(Int)=    0.0000017319
 Iter  40:  RMS(Cart)=    0.0000003019 RMS(Int)=    0.0000016873
 Iter  41:  RMS(Cart)=    0.0000002930 RMS(Int)=    0.0000016440
 Iter  42:  RMS(Cart)=    0.0000002844 RMS(Int)=    0.0000016019
 Iter  43:  RMS(Cart)=    0.0000002761 RMS(Int)=    0.0000015611
 Iter  44:  RMS(Cart)=    0.0000002681 RMS(Int)=    0.0000015215
 Iter  45:  RMS(Cart)=    0.0000002603 RMS(Int)=    0.0000014830
 Iter  46:  RMS(Cart)=    0.0000002527 RMS(Int)=    0.0000014457
 Iter  47:  RMS(Cart)=    0.0000002454 RMS(Int)=    0.0000014094
 Iter  48:  RMS(Cart)=    0.0000002383 RMS(Int)=    0.0000013742
 Iter  49:  RMS(Cart)=    0.0000002315 RMS(Int)=    0.0000013400
 Iter  50:  RMS(Cart)=    0.0000002248 RMS(Int)=    0.0000013068
 Iter  51:  RMS(Cart)=    0.0000002184 RMS(Int)=    0.0000012746
 Iter  52:  RMS(Cart)=    0.0000002122 RMS(Int)=    0.0000012432
 Iter  53:  RMS(Cart)=    0.0000002061 RMS(Int)=    0.0000012128
 Iter  54:  RMS(Cart)=    0.0000002002 RMS(Int)=    0.0000011833
 Iter  55:  RMS(Cart)=    0.0000001946 RMS(Int)=    0.0000011546
 Iter  56:  RMS(Cart)=    0.0000001891 RMS(Int)=    0.0000011267
 Iter  57:  RMS(Cart)=    0.0000001837 RMS(Int)=    0.0000010996
 Iter  58:  RMS(Cart)=    0.0000001786 RMS(Int)=    0.0000010732
 Iter  59:  RMS(Cart)=    0.0000001735 RMS(Int)=    0.0000010477
 Iter  60:  RMS(Cart)=    0.0000001687 RMS(Int)=    0.0000010228
 Iter  61:  RMS(Cart)=    0.0000001640 RMS(Int)=    0.0000009986
CONVERGED
Small eigenvalue found = 5.914e-03
Small eigenvalue found = 1.420e-02
Small eigenvalue found = 1.996e-02
The first mode is                       ....   91
The number of degrees of freedom        ....   81
Storing new coordinates                 .... done

    -----------------------------------------------------------------
                    Redundant Internal Coordinates


    -----------------------------------------------------------------
         Definition                    Initial Value    Approx d2E/dq
    -----------------------------------------------------------------
      1. B(C   1,C   0)                  1.5333         0.369027   
      2. B(C   2,C   1)                  1.5471         0.350825   
      3. B(C   3,C   2)                  1.5492         0.348147   
      4. B(O   4,C   0)                  1.4668         0.422031   
      5. B(O   4,C   3)                  1.4789         0.403699   
      6. B(H   5,C   0)                  1.0919         0.357632   
      7. B(H   6,C   1)                  1.0958         0.352561   
      8. B(H   7,C   1)                  1.0951         0.353431   
      9. B(H   8,C   2)                  1.0945         0.354166   
     10. B(H   9,C   2)                  1.0966         0.351438   
     11. B(H  10,C   3)                  1.0954         0.353010   
     12. B(H  11,C   3)                  1.0939         0.354989   
     13. B(H  13,C  12)                  1.0973         0.350528   
     14. B(H  14,C  12)                  1.0969         0.351068   
     15. B(O  15,C   0)                  1.5525         0.307993   
     16. B(O  15,C  12)                  1.5537         0.306636   
     17. B(C  16,C  12)                  1.5541         0.341932   
     18. B(C  17,C  16)                  1.5327         0.369898   
     19. B(C  18,C  17)                  1.5472         0.350673   
     20. B(C  19,C  18)                  1.5489         0.348521   
     21. B(O  20,C  16)                  1.4677         0.420619   
     22. B(O  20,C  19)                  1.4782         0.404778   
     23. B(H  21,C  16)                  1.0914         0.358270   
     24. B(O  22,C  17)                  1.5536         0.306788   
     25. B(H  23,C  17)                  1.0949         0.353614   
     26. B(H  24,C  18)                  1.0947         0.353931   
     27. B(H  25,C  18)                  1.0972         0.350687   
     28. B(H  26,C  19)                  1.0953         0.353197   
     29. B(H  27,C  19)                  1.0932         0.355952   
     30. B(H  28,O  22)                  1.0968         0.314537   
     31. A(O   4,C   0,H   5)          107.0169         0.328541   
     32. A(C   1,C   0,O  15)          111.3059         0.348740   
     33. A(C   1,C   0,O   4)          104.2508         0.367935   
     34. A(O   4,C   0,O  15)          110.4723         0.354548   
     35. A(C   1,C   0,H   5)          114.4405         0.323302   
     36. A(H   5,C   0,O  15)          109.1543         0.312058   
     37. A(C   0,C   1,C   2)          101.6783         0.358729   
     38. A(C   2,C   1,H   7)          112.8333         0.320016   
     39. A(C   2,C   1,H   6)          110.6702         0.319888   
     40. A(C   0,C   1,H   6)          110.0681         0.322546   
     41. A(H   6,C   1,H   7)          108.3679         0.289027   
     42. A(C   0,C   1,H   7)          113.1246         0.322677   
     43. A(C   1,C   2,H   8)          112.8313         0.320125   
     44. A(C   1,C   2,C   3)          103.1285         0.355196   
     45. A(C   1,C   2,H   9)          110.0795         0.319721   
     46. A(C   3,C   2,H   9)          110.6147         0.319321   
     47. A(C   3,C   2,H   8)          112.4033         0.319725   
     48. A(H   8,C   2,H   9)          107.7731         0.288977   
     49. A(O   4,C   3,H  10)          109.1301         0.325449   
     50. A(C   2,C   3,H  10)          112.5254         0.319554   
     51. A(C   2,C   3,O   4)          106.5268         0.361529   
     52. A(O   4,C   3,H  11)          107.1239         0.325748   
     53. A(H  10,C   3,H  11)          108.8727         0.289284   
     54. A(C   2,C   3,H  11)          112.4569         0.319846   
     55. A(C   0,O   4,C   3)          108.3129         0.371320   
     56. A(H  14,C  12,C  16)          107.7340         0.318329   
     57. A(H  13,C  12,H  14)          108.2598         0.288462   
     58. A(H  13,C  12,O  15)          109.2561         0.310825   
     59. A(H  14,C  12,O  15)          110.4751         0.310902   
     60. A(O  15,C  12,C  16)          112.6824         0.344041   
     61. A(H  13,C  12,C  16)          108.3122         0.318249   
     62. A(C   0,O  15,C  12)          115.1734         0.336028   
     63. A(C  12,C  16,C  17)          111.3091         0.357309   
     64. A(C  12,C  16,O  20)          110.3961         0.362954   
     65. A(C  17,C  16,O  20)          104.2766         0.367873   
     66. A(C  12,C  16,H  21)          109.1629         0.319386   
     67. A(C  17,C  16,H  21)          114.4872         0.323522   
     68. A(O  20,C  16,H  21)          107.0024         0.328456   
     69. A(C  16,C  17,C  18)          101.6747         0.358846   
     70. A(C  16,C  17,O  22)          110.0254         0.348649   
     71. A(C  18,C  17,O  22)          110.6677         0.345531   
     72. A(C  16,C  17,H  23)          113.1395         0.322829   
     73. A(C  18,C  17,H  23)          112.9154         0.320021   
     74. A(O  22,C  17,H  23)          108.3211         0.311290   
     75. A(C  17,C  18,C  19)          103.1444         0.355235   
     76. A(C  17,C  18,H  24)          112.7822         0.320068   
     77. A(C  19,C  18,H  24)          112.4873         0.319746   
     78. A(C  17,C  18,H  25)          110.0283         0.319587   
     79. A(C  19,C  18,H  25)          110.6489         0.319266   
     80. A(H  24,C  18,H  25)          107.7405         0.288850   
     81. A(C  18,C  19,O  20)          106.5557         0.361760   
     82. A(C  18,C  19,H  26)          112.4869         0.319638   
     83. A(O  20,C  19,H  26)          109.1453         0.325620   
     84. A(C  18,C  19,H  27)          112.4231         0.320044   
     85. A(O  20,C  19,H  27)          107.1696         0.326036   
     86. A(H  26,C  19,H  27)          108.8619         0.289431   
     87. A(C  16,O  20,C  19)          108.2909         0.371277   
     88. A(C  17,O  22,H  28)          109.6490         0.302953   
     89. D(H   7,C   1,C   0,H   5)     82.1534         0.010890   
     90. D(C   2,C   1,C   0,O  15)     79.0886         0.010890   
     91. D(H   7,C   1,C   0,O  15)    -42.1860         0.010890   
     92. D(H   6,C   1,C   0,O   4)     77.3246         0.010890   
     93. D(H   6,C   1,C   0,O  15)   -163.5721         0.010890   
     94. D(H   6,C   1,C   0,H   5)    -39.2327         0.010890   
     95. D(H   7,C   1,C   0,O   4)   -161.2893         0.010890   
     96. D(C   2,C   1,C   0,O   4)    -40.0146         0.010890 C 
     97. D(C   2,C   1,C   0,H   5)   -156.5720         0.010890   
     98. D(H   9,C   2,C   1,H   6)    160.0777         0.009912   
     99. D(H   8,C   2,C   1,C   0)    156.5478         0.009912   
    100. D(H   8,C   2,C   1,H   6)     39.6450         0.009912   
    101. D(C   3,C   2,C   1,C   0)     35.0268         0.009912 C 
    102. D(H   8,C   2,C   1,H   7)    -81.9750         0.009912   
    103. D(H   9,C   2,C   1,C   0)    -83.0195         0.009912   
    104. D(C   3,C   2,C   1,H   6)    -81.8760         0.009912   
    105. D(H   9,C   2,C   1,H   7)     38.4577         0.009912   
    106. D(C   3,C   2,C   1,H   7)    156.5040         0.009912   
    107. D(H  11,C   3,C   2,H   9)   -143.4627         0.009774   
    108. D(O   4,C   3,C   2,H   8)   -140.0068         0.009774   
    109. D(O   4,C   3,C   2,H   9)     99.4741         0.009774   
    110. D(H  10,C   3,C   2,C   1)   -137.7432         0.009774   
    111. D(H  10,C   3,C   2,H   8)    100.4467         0.009774   
    112. D(H  10,C   3,C   2,H   9)    -20.0724         0.009774   
    113. D(H  11,C   3,C   2,C   1)     98.8666         0.009774   
    114. D(O   4,C   3,C   2,C   1)    -18.1967         0.009774 C 
    115. D(H  11,C   3,C   2,H   8)    -22.9435         0.009774   
    116. D(C   3,O   4,C   0,C   1)     29.5920         0.014035 C 
    117. D(C   3,O   4,C   0,H   5)    151.2039         0.014035   
    118. D(C   3,O   4,C   0,O  15)    -90.0762         0.014035   
    119. D(C   0,O   4,C   3,C   2)     -6.8730         0.012866 C 
    120. D(C   0,O   4,C   3,H  10)    114.8547         0.012866   
    121. D(C   0,O   4,C   3,H  11)   -127.4270         0.012866   
    122. D(C   0,O  15,C  12,C  16)     30.0000         0.007733 C 
    123. D(C  12,O  15,C   0,O   4)    180.0000         0.007793 C 
    124. D(C  12,O  15,C   0,H   5)    -62.5893         0.007793   
    125. D(C   0,O  15,C  12,H  14)    -90.5608         0.007733   
    126. D(C   0,O  15,C  12,H  13)    150.4455         0.007733   
    127. D(C  12,O  15,C   0,C   1)     64.6822         0.007793   
    128. D(C  17,C  16,C  12,H  13)    -56.2840         0.009457   
    129. D(H  21,C  16,C  12,H  14)     59.4808         0.009457   
    130. D(C  17,C  16,C  12,O  15)     64.7018         0.009457   
    131. D(O  20,C  16,C  12,H  13)     59.0212         0.009457   
    132. D(O  20,C  16,C  12,H  14)    -57.8729         0.009457   
    133. D(O  20,C  16,C  12,O  15)   -179.9930         0.009457 C 
    134. D(C  17,C  16,C  12,H  14)   -173.1781         0.009457   
    135. D(H  21,C  16,C  12,H  13)    176.3749         0.009457   
    136. D(H  21,C  16,C  12,O  15)    -62.6392         0.009457   
    137. D(C  18,C  17,C  16,C  12)     79.0773         0.010938   
    138. D(C  18,C  17,C  16,O  20)    -39.9523         0.010938 C 
    139. D(C  18,C  17,C  16,H  21)   -156.5325         0.010938   
    140. D(O  22,C  17,C  16,C  12)   -163.6062         0.010938   
    141. D(O  22,C  17,C  16,O  20)     77.3642         0.010938   
    142. D(O  22,C  17,C  16,H  21)    -39.2160         0.010938   
    143. D(H  23,C  17,C  16,C  12)    -42.3009         0.010938   
    144. D(H  23,C  17,C  16,O  20)   -161.3305         0.010938   
    145. D(H  23,C  17,C  16,H  21)     82.0893         0.010938   
    146. D(H  24,C  18,C  17,H  23)    -81.8672         0.009905   
    147. D(C  19,C  18,C  17,O  22)    -81.8585         0.009905   
    148. D(C  19,C  18,C  17,H  23)    156.5261         0.009905   
    149. D(H  24,C  18,C  17,C  16)    156.5988         0.009905   
    150. D(C  19,C  18,C  17,C  16)     34.9922         0.009905 C 
    151. D(H  24,C  18,C  17,O  22)     39.7481         0.009905   
    152. D(H  25,C  18,C  17,C  16)    -83.0788         0.009905   
    153. D(H  25,C  18,C  17,O  22)    160.0705         0.009905   
    154. D(H  25,C  18,C  17,H  23)     38.4551         0.009905   
    155. D(H  27,C  19,C  18,H  25)   -143.4357         0.009793   
    156. D(O  20,C  19,C  18,H  24)   -139.9949         0.009793   
    157. D(O  20,C  19,C  18,H  25)     99.4463         0.009793   
    158. D(H  26,C  19,C  18,C  17)   -137.7508         0.009793   
    159. D(H  26,C  19,C  18,H  24)    100.4435         0.009793   
    160. D(H  26,C  19,C  18,H  25)    -20.1152         0.009793   
    161. D(H  27,C  19,C  18,C  17)     98.9287         0.009793   
    162. D(O  20,C  19,C  18,C  17)    -18.1893         0.009793 C 
    163. D(H  27,C  19,C  18,H  24)    -22.8770         0.009793   
    164. D(C  19,O  20,C  16,C  12)    -90.1064         0.013943   
    165. D(C  19,O  20,C  16,C  17)     29.5420         0.013943 C 
    166. D(C  19,O  20,C  16,H  21)    151.2140         0.013943   
    167. D(C  16,O  20,C  19,C  18)     -6.8356         0.012933 C 
    168. D(C  16,O  20,C  19,H  26)    114.8716         0.012933   
    169. D(C  16,O  20,C  19,H  27)   -127.3896         0.012933   
    170. D(H  28,O  22,C  17,C  16)    -55.8902         0.007740   
    171. D(H  28,O  22,C  17,C  18)     55.6823         0.007740   
    172. D(H  28,O  22,C  17,H  23)    179.9655         0.007740   
    -----------------------------------------------------------------

Number of atoms                         .... 29
Number of degrees of freedom            .... 172

         *************************************************************
         *                GEOMETRY OPTIMIZATION CYCLE   1            *
         *************************************************************
---------------------------------
CARTESIAN COORDINATES (ANGSTROEM)
---------------------------------
  C    -21.048245   26.222027   46.250989
  C    -20.361020   27.557884   45.943916
  C    -20.328829   28.221897   47.340896
  C    -20.110002   27.021889   48.295929
  O    -20.473265   25.806928   47.534972
  H    -20.833429   25.427939   45.533032
  H    -19.344068   27.381691   45.575876
  H    -20.897943   28.156960   45.200921
  H    -19.542684   28.977754   47.433838
  H    -21.288730   28.710077   47.547930
  H    -20.732948   27.082033   49.194956
  H    -19.064008   26.912706   48.596884
  C    -23.309242   26.834096   45.072019
  H    -24.332223   26.437047   45.074101
  H    -23.365295   27.928085   45.014878
  O    -22.586215   26.394246   46.375055
  C    -22.592106   26.329189   43.789058
  C    -22.617874   24.799180   43.702097
  C    -24.053818   24.538943   43.188052
  C    -24.311958   25.737879   42.242010
  O    -23.315130   26.772037   42.591019
  H    -21.594166   26.768329   43.740090
  O    -21.567758   24.307312   42.668152
  H    -22.412839   24.310237   44.660119
  H    -24.153653   23.574914   42.679075
  H    -24.760852   24.548858   44.027024
  H    -25.318025   26.154732   42.358959
  H    -24.155878   25.480874   41.191024
  H    -21.753793   24.784257   41.698132

----------------------------
CARTESIAN COORDINATES (A.U.)
----------------------------
  NO LB      ZA    FRAG     MASS         X           Y           Z
   0 C     6.0000    0    12.011  -39.775419   49.552450   87.401702
   1 C     6.0000    0    12.011  -38.476752   52.076853   86.821418
   2 C     6.0000    0    12.011  -38.415919   53.331656   89.461329
   3 C     6.0000    0    12.011  -38.002396   51.063970   91.266078
   4 O     8.0000    0    15.999  -38.688865   48.768025   89.828079
   5 H     1.0000    0     1.008  -39.369476   48.051841   86.044960
   6 H     1.0000    0     1.008  -36.554991   51.743898   86.125923
   7 H     1.0000    0     1.008  -39.491390   53.208943   85.417362
   8 H     1.0000    0     1.008  -36.930321   54.760019   89.636964
   9 H     1.0000    0     1.008  -40.229869   54.254183   89.852566
  10 H     1.0000    0     1.008  -39.179594   51.177625   92.964994
  11 H     1.0000    0     1.008  -36.025754   50.857644   91.834801
  12 C     6.0000    0    12.011  -44.048084   50.709092   85.173772
  13 H     1.0000    0     1.008  -45.981238   49.958779   85.177706
  14 H     1.0000    0     1.008  -44.154009   52.776433   85.065791
  15 O     8.0000    0    15.999  -42.681761   49.877897   87.636153
  16 C     6.0000    0    12.011  -42.692893   49.754957   82.749328
  17 C     6.0000    0    12.011  -42.741588   46.863658   82.584995
  18 C     6.0000    0    12.011  -45.455129   46.371882   81.613590
  19 C     6.0000    0    12.011  -45.942943   48.637543   79.825831
  20 O     8.0000    0    15.999  -44.059211   50.591817   80.485361
  21 H     1.0000    0     1.008  -40.807059   50.584811   82.656792
  22 O     8.0000    0    15.999  -40.757157   45.934162   80.631122
  23 H     1.0000    0     1.008  -42.354128   45.939690   84.395393
  24 H     1.0000    0     1.008  -45.643790   44.550130   80.651763
  25 H     1.0000    0     1.008  -46.791229   46.390619   83.199018
  26 H     1.0000    0     1.008  -47.844134   49.425281   80.046832
  27 H     1.0000    0     1.008  -45.647994   48.151873   77.839754
  28 H     1.0000    0     1.008  -41.108711   46.835459   78.798049

--------------------------------
INTERNAL COORDINATES (ANGSTROEM)
--------------------------------
 C      0   0   0     0.000000000000     0.00000000     0.00000000
 C      1   0   0     1.533334275362     0.00000000     0.00000000
 C      2   1   0     1.547103422529   101.67907390     0.00000000
 C      3   2   1     1.549188819996   103.12737509    35.02687180
 O      1   2   3     1.466801281701   104.24948604   319.98542309
 H      1   2   3     1.091872245274   114.43876658   203.42640133
 H      2   1   3     1.095759553917   110.06782188   117.34000099
 H      2   1   3     1.095088580892   113.12442239   238.72597460
 H      3   2   1     1.094523183857   112.83161078   156.54780790
 H      3   2   1     1.096628013503   110.07982737   276.98070077
 H      4   3   2     1.095413164062   112.52534669   222.25678475
 H      4   3   2     1.093891219455   112.45670684    98.86663270
 C      1   2   3     2.622347421682    95.33299893   108.21776102
 H     13   1   2     1.097334042122   135.93454925   195.74153838
 H     13   1   2     1.096914308412   107.46595292   338.62150067
 O      1   2   3     1.552547583812   111.30349807    79.08752829
 C     13   1   2     1.554092339599    84.11947088    85.40468970
 C     17  13   1     1.532692076054   111.30992837    80.33477617
 C     18  17  13     1.547220734091   101.67437954    79.07777131
 C     19  18  17     1.548896704109   103.14481525    34.99212208
 O     17  13   1     1.467713187241   110.39593901   195.64094877
 H     17  13   1     1.091387190689   109.16215454   312.99308196
 O     18  17  13     1.553615138958   110.02547930   196.39399885
 H     18  17  13     1.094947487325   113.13961131   317.69935778
 H     19  18  17     1.094704069601   112.78209133   156.59880433
 H     19  18  17     1.097210098386   110.02814814   276.92110130
 H     20  19  18     1.095268916751   112.48693062   222.24922773
 H     20  19  18     1.093154151984   112.42317641    98.92870952
 H     23  18  17     1.096824963246   109.64896937   304.10998767

---------------------------
INTERNAL COORDINATES (A.U.)
---------------------------
 C      0   0   0     0.000000000000     0.00000000     0.00000000
 C      1   0   0     2.897581852189     0.00000000     0.00000000
 C      2   1   0     2.923601769431   101.67907390     0.00000000
 C      3   2   1     2.927542599525   103.12737509    35.02687180
 O      1   2   3     2.771852715300   104.24948604   319.98542309
 H      1   2   3     2.063339516798   114.43876658   203.42640133
 H      2   1   3     2.070685465531   110.06782188   117.34000099
 H      2   1   3     2.069417510270   113.12442239   238.72597460
 H      3   2   1     2.068349064717   112.83161078   156.54780790
 H      3   2   1     2.072326616307   110.07982737   276.98070077
 H      4   3   2     2.070030883569   112.52534669   222.25678475
 H      4   3   2     2.067154825070   112.45670684    98.86663270
 C      1   2   3     4.955518454973    95.33299893   108.21776102
 H     13   1   2     2.073660817040   135.93454925   195.74153838
 H     13   1   2     2.072867635279   107.46595292   338.62150067
 O      1   2   3     2.933889743286   111.30349807    79.08752829
 C     13   1   2     2.936808908667    84.11947088    85.40468970
 C     17  13   1     2.896368271374   111.30992837    80.33477617
 C     18  17  13     2.923823456156   101.67437954    79.07777131
 C     19  18  17     2.926990580499   103.14481525    34.99212208
 O     17  13   1     2.773575967029   110.39593901   195.64094877
 H     17  13   1     2.062422896472   109.16215454   312.99308196
 O     18  17  13     2.935907130145   110.02547930   196.39399885
 H     18  17  13     2.069150882070   113.13961131   317.69935778
 H     19  18  17     2.068690889234   112.78209133   156.59880433
 H     19  18  17     2.073426597322   110.02814814   276.92110130
 H     20  19  18     2.069758295655   112.48693062   222.24922773
 H     20  19  18     2.065761969409   112.42317641    98.92870952
 H     23  18  17     2.072698797384   109.64896937   304.10998767

---------------------
BASIS SET INFORMATION
---------------------
There are 3 groups of distinct atoms

 Group   1 Type C   : 10s4p contracted to 3s2p pattern {631/31}
 Group   2 Type O   : 10s4p contracted to 3s2p pattern {631/31}
 Group   3 Type H   : 4s contracted to 2s pattern {31}

Atom   0C    basis set group =>   1
Atom   1C    basis set group =>   1
Atom   2C    basis set group =>   1
Atom   3C    basis set group =>   1
Atom   4O    basis set group =>   2
Atom   5H    basis set group =>   3
Atom   6H    basis set group =>   3
Atom   7H    basis set group =>   3
Atom   8H    basis set group =>   3
Atom   9H    basis set group =>   3
Atom  10H    basis set group =>   3
Atom  11H    basis set group =>   3
Atom  12C    basis set group =>   1
Atom  13H    basis set group =>   3
Atom  14H    basis set group =>   3
Atom  15O    basis set group =>   2
Atom  16C    basis set group =>   1
Atom  17C    basis set group =>   1
Atom  18C    basis set group =>   1
Atom  19C    basis set group =>   1
Atom  20O    basis set group =>   2
Atom  21H    basis set group =>   3
Atom  22O    basis set group =>   2
Atom  23H    basis set group =>   3
Atom  24H    basis set group =>   3
Atom  25H    basis set group =>   3
Atom  26H    basis set group =>   3
Atom  27H    basis set group =>   3
Atom  28H    basis set group =>   3
------------------------------------------------------------------------------
                           ORCA GTO INTEGRAL CALCULATION
------------------------------------------------------------------------------

                         BASIS SET STATISTICS AND STARTUP INFO

 # of primitive gaussian shells          ...  246
 # of primitive gaussian functions       ...  350
 # of contracted shells                  ...   97
 # of contracted basis functions         ...  149
 Highest angular momentum                ...    1
 Maximum contraction depth               ...    6
 Integral package used                   ... LIBINT
 Integral threshhold            Thresh   ...  2.500e-11
 Primitive cut-off              TCut     ...  2.500e-12


------------------------------ INTEGRAL EVALUATION ----------------------------


 * One electron integrals 
 Pre-screening matrix                    ... done
 Shell pair data                         ... done (   0.003 sec)

-------------------------------------------------------------------------------
                                 ORCA SCF
-------------------------------------------------------------------------------

------------
SCF SETTINGS
------------
Hamiltonian:
 Density Functional     Method          .... DFT(GTOs)
 Exchange Functional    Exchange        .... B88
   X-Alpha parameter    XAlpha          ....  0.666667
   Becke's b parameter  XBeta           ....  0.004200
 Correlation Functional Correlation     .... LYP
 LDA part of GGA corr.  LDAOpt          .... VWN-5
 Gradients option       PostSCFGGA      .... off
 Hybrid DFT is turned on
   Fraction HF Exchange ScalHFX         ....  0.200000
   Scaling of DF-GGA-X  ScalDFX         ....  0.720000
   Scaling of DF-GGA-C  ScalDFC         ....  0.810000
   Scaling of DF-LDA-C  ScalLDAC        ....  1.000000
   Perturbative correction              ....  0.000000
   Density functional embedding theory  .... OFF
   NL short-range parameter             ....  4.800000


General Settings:
 Integral files         IntName         .... project_8050/ensemble_180_30
 Hartree-Fock type      HFTyp           .... RHF
 Total Charge           Charge          ....    0
 Multiplicity           Mult            ....    1
 Number of Electrons    NEL             ....  102
 Basis Dimension        Dim             ....  149
 Nuclear Repulsion      ENuc            ....    874.7618354368 Eh

Convergence Acceleration:
 DIIS                   CNVDIIS         .... on
   Start iteration      DIISMaxIt       ....    12
   Startup error        DIISStart       ....  0.200000
   # of expansion vecs  DIISMaxEq       ....     5
   Bias factor          DIISBfac        ....   1.050
   Max. coefficient     DIISMaxC        ....  10.000
 Newton-Raphson         CNVNR           .... off
 SOSCF                  CNVSOSCF        .... on
   Start iteration      SOSCFMaxIt      ....   150
   Startup grad/error   SOSCFStart      ....  0.003300
 Level Shifting         CNVShift        .... on
   Level shift para.    LevelShift      ....    0.2500
   Turn off err/grad.   ShiftErr        ....    0.0010
 Zerner damping         CNVZerner       .... off
 Static damping         CNVDamp         .... on
   Fraction old density DampFac         ....    0.7000
   Max. Damping (<1)    DampMax         ....    0.9800
   Min. Damping (>=0)   DampMin         ....    0.0000
   Turn off err/grad.   DampErr         ....    0.1000
 Fernandez-Rico         CNVRico         .... off

SCF Procedure:
 Maximum # iterations   MaxIter         ....   125
 SCF integral mode      SCFMode         .... Direct
   Integral package                     .... LIBINT
 Reset frequency        DirectResetFreq ....    20
 Integral Threshold     Thresh          ....  2.500e-11 Eh
 Primitive CutOff       TCut            ....  2.500e-12 Eh

Convergence Tolerance:
 Convergence Check Mode ConvCheckMode   .... Total+1el-Energy
 Convergence forced     ConvForced      .... 0
 Energy Change          TolE            ....  1.000e-08 Eh
 1-El. energy change                    ....  1.000e-05 Eh
 Orbital Gradient       TolG            ....  1.000e-05
 Orbital Rotation angle TolX            ....  1.000e-05
 DIIS Error             TolErr          ....  5.000e-07


Diagonalization of the overlap matrix:
Smallest eigenvalue                        ... 4.135e-03
Time for diagonalization                   ...    0.007 sec
Threshold for overlap eigenvalues          ... 1.000e-08
Number of eigenvalues below threshold      ... 0
Time for construction of square roots      ...    9.120 sec
Total time needed                          ...    9.127 sec

-------------------
DFT GRID GENERATION
-------------------

General Integration Accuracy     IntAcc      ...  4.340
Radial Grid Type                 RadialGrid  ... Gauss-Chebyshev
Angular Grid (max. acc.)         AngularGrid ... Lebedev-110
Angular grid pruning method      GridPruning ... 3 (G Style)
Weight generation scheme         WeightScheme... Becke
Basis function cutoff            BFCut       ...    1.0000e-11
Integration weight cutoff        WCut        ...    1.0000e-14
Grids for H and He will be reduced by one unit

# of grid points (after initial pruning)     ...  34472 (   0.0 sec)
# of grid points (after weights+screening)   ...  30925 (   0.3 sec)
nearest neighbour list constructed           ...    0.0 sec
Grid point re-assignment to atoms done       ...    0.0 sec
Grid point division into batches done        ...    0.0 sec
Reduced shell lists constructed in    0.5 sec

Total number of grid points                  ...    30925
Total number of batches                      ...      495
Average number of points per batch           ...       62
Average number of grid points per atom       ...     1066
Average number of shells per batch           ...    59.31 (61.15%)
Average number of basis functions per batch  ...    96.27 (64.61%)
Average number of large shells per batch     ...    42.50 (71.65%)
Average number of large basis fcns per batch ...    70.22 (72.94%)
Maximum spatial batch extension              ...  20.79, 21.75, 18.27 au
Average spatial batch extension              ...   3.29,  3.47,  3.26 au

Time for grid setup =    0.946 sec

------------------------------
INITIAL GUESS: MODEL POTENTIAL
------------------------------
Loading Hartree-Fock densities                     ... done
Calculating cut-offs                               ... done
Setting up the integral package                    ... done
Initializing the effective Hamiltonian             ... done
Starting the Coulomb interaction                   ... done (   0.4 sec)
Reading the grid                                   ... done
Mapping shells                                     ... done
Starting the XC term evaluation                    ... done (   0.6 sec)
  promolecular density results
     # of electrons  =    101.990364862
     EX              =    -83.669280497
     EC              =     -3.461557750
     EX+EC           =    -87.130838247
Transforming the Hamiltonian                       ... done (   0.2 sec)
Diagonalizing the Hamiltonian                      ... done (   0.0 sec)
Back transforming the eigenvectors                 ... done (   0.0 sec)
Now organizing SCF variables                       ... done
                      ------------------
                      INITIAL GUESS DONE (   2.4 sec)
                      ------------------
--------------
SCF ITERATIONS
--------------
ITER       Energy         Delta-E        Max-DP      RMS-DP      [F,P]     Damp
               ***  Starting incremental Fock matrix formation  ***
  0   -652.5365080047   0.000000000000 0.07472750  0.00297226  0.2353500 0.7000
  1   -652.6737185365  -0.137210531805 0.04237552  0.00202739  0.1037943 0.7000
                               ***Turning on DIIS***
  2   -652.7252885881  -0.051570051574 0.05401835  0.00325506  0.0303419 0.0000
  3   -652.8105139993  -0.085225411191 0.03046099  0.00133635  0.0525340 0.0000
  4   -652.8274360245  -0.016922025172 0.00786211  0.00042237  0.0086802 0.0000
  5   -652.8284114857  -0.000975461238 0.00268700  0.00012758  0.0036948 0.0000
                      *** Initiating the SOSCF procedure ***
                           *** Shutting down DIIS ***
                      *** Re-Reading the Fockian *** 
                      *** Removing any level shift *** 
ITER      Energy       Delta-E        Grad      Rot      Max-DP    RMS-DP
  6   -652.82848024  -0.0000687593  0.000242  0.000242  0.000997  0.000054
               *** Restarting incremental Fock matrix formation ***
  7   -652.82848320  -0.0000029536  0.000093  0.000186  0.000845  0.000030
  8   -652.82848193   0.0000012662  0.000146  0.000141  0.000435  0.000018
  9   -652.82848432  -0.0000023843  0.000023  0.000039  0.000159  0.000006
 10   -652.82848425   0.0000000698  0.000034  0.000023  0.000106  0.000004
 11   -652.82848437  -0.0000001247  0.000003  0.000005  0.000022  0.000001
 12   -652.82848437   0.0000000003  0.000005  0.000003  0.000014  0.000000
                  ***Gradient check signals convergence***
              ***Rediagonalizing the Fockian in SOSCF/NRSCF***

               *****************************************************
               *                     SUCCESS                       *
               *           SCF CONVERGED AFTER  13 CYCLES          *
               *****************************************************

Setting up the final grid:

General Integration Accuracy     IntAcc      ...  4.670
Radial Grid Type                 RadialGrid  ... Gauss-Chebyshev
Angular Grid (max. acc.)         AngularGrid ... Lebedev-302
Angular grid pruning method      GridPruning ... 3 (G Style)
Weight generation scheme         WeightScheme... Becke
Basis function cutoff            BFCut       ...    1.0000e-11
Integration weight cutoff        WCut        ...    1.0000e-14
Grids for H and He will be reduced by one unit

# of grid points (after initial pruning)     ... 135060 (   0.1 sec)
# of grid points (after weights+screening)   ... 118592 (   1.4 sec)
nearest neighbour list constructed           ...    0.0 sec
Grid point re-assignment to atoms done       ...    0.0 sec
Grid point division into batches done        ...    0.6 sec
Reduced shell lists constructed in    2.2 sec

Total number of grid points                  ...   118592
Total number of batches                      ...     1864
Average number of points per batch           ...       63
Average number of grid points per atom       ...     4089
Average number of shells per batch           ...    54.23 (55.90%)
Average number of basis functions per batch  ...    88.23 (59.22%)
Average number of large shells per batch     ...    38.04 (70.15%)
Average number of large basis fcns per batch ...    63.04 (71.45%)
Maximum spatial batch extension              ...  18.13, 22.44, 20.01 au
Average spatial batch extension              ...   2.20,  2.24,  2.23 au

Final grid set up in    3.9 sec
Final integration                            ... done (   3.4 sec)
Change in XC energy                          ...    -0.000153251
Integrated number of electrons               ...   101.999332523
Previous integrated no of electrons          ...   102.000447650

----------------
TOTAL SCF ENERGY
----------------

Total Energy       :         -652.82863762 Eh          -17764.37035 eV

Components:
Nuclear Repulsion  :          874.76183544 Eh           23803.47969 eV
Electronic Energy  :        -1527.59047306 Eh          -41567.85004 eV
One Electron Energy:        -2626.96763347 Eh          -71483.42345 eV
Two Electron Energy:         1099.37716041 Eh           29915.57341 eV

Virial components:
Potential Energy   :        -1301.78918532 Eh          -35423.48463 eV
Kinetic Energy     :          648.96054769 Eh           17659.11427 eV
Virial Ratio       :            2.00596044


DFT components:
N(Alpha)           :       50.999666261364 electrons
N(Beta)            :       50.999666261364 electrons
N(Total)           :      101.999332522728 electrons
E(X)               :      -67.594797585680 Eh       
E(C)               :       -4.071470097161 Eh       
E(XC)              :      -71.666267682842 Eh       
DFET-embed. en.    :        0.000000000000 Eh       

---------------
SCF CONVERGENCE
---------------

  Last Energy change         ...   -3.9915e-10  Tolerance :   1.0000e-08
  Last MAX-Density change    ...    3.0987e-06  Tolerance :   1.0000e-07
  Last RMS-Density change    ...    1.1985e-07  Tolerance :   5.0000e-09
  Last Orbital Gradient      ...    3.7798e-07  Tolerance :   1.0000e-05
  Last Orbital Rotation      ...    6.4216e-07  Tolerance :   1.0000e-05

             **** THE GBW FILE WAS UPDATED (project_8050/ensemble_180_30.gbw) ****
             **** DENSITY FILE WAS UPDATED (project_8050/ensemble_180_30.scfp) ****
             **** ENERGY FILE WAS UPDATED (project_8050/ensemble_180_30.en.tmp) ****
             **** THE GBW FILE WAS UPDATED (project_8050/ensemble_180_30.gbw) ****
             **** DENSITY FILE WAS UPDATED (project_8050/ensemble_180_30.scfp) ****
----------------
ORBITAL ENERGIES
----------------

  NO   OCC          E(Eh)            E(eV) 
   0   2.0000     -19.153871      -521.2033 
   1   2.0000     -19.151366      -521.1352 
   2   2.0000     -19.149046      -521.0720 
   3   2.0000     -19.145182      -520.9669 
   4   2.0000     -10.284414      -279.8531 
   5   2.0000     -10.249042      -278.8906 
   6   2.0000     -10.244258      -278.7604 
   7   2.0000     -10.239331      -278.6264 
   8   2.0000     -10.237623      -278.5799 
   9   2.0000     -10.226650      -278.2813 
  10   2.0000     -10.198129      -277.5052 
  11   2.0000     -10.192148      -277.3424 
  12   2.0000     -10.188980      -277.2562 
  13   2.0000      -1.039341       -28.2819 
  14   2.0000      -1.034299       -28.1447 
  15   2.0000      -0.968186       -26.3457 
  16   2.0000      -0.966153       -26.2904 
  17   2.0000      -0.789537       -21.4844 
  18   2.0000      -0.787470       -21.4282 
  19   2.0000      -0.769230       -20.9318 
  20   2.0000      -0.735372       -20.0105 
  21   2.0000      -0.677039       -18.4232 
  22   2.0000      -0.611278       -16.6337 
  23   2.0000      -0.600664       -16.3449 
  24   2.0000      -0.594666       -16.1817 
  25   2.0000      -0.576328       -15.6827 
  26   2.0000      -0.520084       -14.1522 
  27   2.0000      -0.506659       -13.7869 
  28   2.0000      -0.499199       -13.5839 
  29   2.0000      -0.486690       -13.2435 
  30   2.0000      -0.467954       -12.7337 
  31   2.0000      -0.452155       -12.3038 
  32   2.0000      -0.447627       -12.1805 
  33   2.0000      -0.432656       -11.7732 
  34   2.0000      -0.423166       -11.5149 
  35   2.0000      -0.417044       -11.3484 
  36   2.0000      -0.405497       -11.0341 
  37   2.0000      -0.392931       -10.6922 
  38   2.0000      -0.376608       -10.2480 
  39   2.0000      -0.375540       -10.2190 
  40   2.0000      -0.363906        -9.9024 
  41   2.0000      -0.359049        -9.7702 
  42   2.0000      -0.356821        -9.7096 
  43   2.0000      -0.332851        -9.0573 
  44   2.0000      -0.318035        -8.6542 
  45   2.0000      -0.313722        -8.5368 
  46   2.0000      -0.308535        -8.3957 
  47   2.0000      -0.271202        -7.3798 
  48   2.0000      -0.263511        -7.1705 
  49   2.0000      -0.258870        -7.0442 
  50   2.0000      -0.246365        -6.7039 
  51   0.0000       0.030321         0.8251 
  52   0.0000       0.059797         1.6272 
  53   0.0000       0.070845         1.9278 
  54   0.0000       0.084686         2.3044 
  55   0.0000       0.092293         2.5114 
  56   0.0000       0.101922         2.7734 
  57   0.0000       0.106826         2.9069 
  58   0.0000       0.114514         3.1161 
  59   0.0000       0.127381         3.4662 
  60   0.0000       0.135852         3.6967 
  61   0.0000       0.139595         3.7986 
  62   0.0000       0.143598         3.9075 
  63   0.0000       0.151068         4.1108 
  64   0.0000       0.155099         4.2204 
  65   0.0000       0.162613         4.4249 
  66   0.0000       0.178170         4.8482 
  67   0.0000       0.178918         4.8686 
  68   0.0000       0.183614         4.9964 
  69   0.0000       0.191579         5.2131 
  70   0.0000       0.205832         5.6010 
  71   0.0000       0.210353         5.7240 
  72   0.0000       0.224167         6.0999 
  73   0.0000       0.227109         6.1800 
  74   0.0000       0.241882         6.5819 
  75   0.0000       0.243902         6.6369 
  76   0.0000       0.262181         7.1343 
  77   0.0000       0.275793         7.5047 
  78   0.0000       0.289924         7.8892 
  79   0.0000       0.294643         8.0176 
  80   0.0000       0.307998         8.3810 
  81   0.0000       0.518694        14.1144 
  82   0.0000       0.539364        14.6768 
  83   0.0000       0.543345        14.7852 
  84   0.0000       0.547459        14.8971 
  85   0.0000       0.554352        15.0847 
  86   0.0000       0.562304        15.3011 
  87   0.0000       0.570843        15.5334 
  88   0.0000       0.578099        15.7309 
  89   0.0000       0.587659        15.9910 
  90   0.0000       0.595368        16.2008 
  91   0.0000       0.611484        16.6393 
  92   0.0000       0.627054        17.0630 
  93   0.0000       0.634357        17.2617 
  94   0.0000       0.640320        17.4240 
  95   0.0000       0.649136        17.6639 
  96   0.0000       0.660969        17.9859 
  97   0.0000       0.668244        18.1838 
  98   0.0000       0.684846        18.6356 
  99   0.0000       0.729582        19.8529 
 100   0.0000       0.740961        20.1626 
 101   0.0000       0.759102        20.6562 
 102   0.0000       0.786763        21.4089 
 103   0.0000       0.806026        21.9331 
 104   0.0000       0.818142        22.2628 
 105   0.0000       0.825035        22.4504 
 106   0.0000       0.842032        22.9129 
 107   0.0000       0.852730        23.2040 
 108   0.0000       0.870673        23.6922 
 109   0.0000       0.882103        24.0032 
 110   0.0000       0.889404        24.2019 
 111   0.0000       0.895645        24.3717 
 112   0.0000       0.898020        24.4364 
 113   0.0000       0.906809        24.6755 
 114   0.0000       0.923207        25.1217 
 115   0.0000       0.932552        25.3760 
 116   0.0000       0.936981        25.4966 
 117   0.0000       0.950698        25.8698 
 118   0.0000       0.964388        26.2423 
 119   0.0000       0.968218        26.3466 
 120   0.0000       0.982652        26.7393 
 121   0.0000       1.013834        27.5878 
 122   0.0000       1.023279        27.8448 
 123   0.0000       1.026523        27.9331 
 124   0.0000       1.034242        28.1432 
 125   0.0000       1.066567        29.0228 
 126   0.0000       1.080195        29.3936 
 127   0.0000       1.096605        29.8401 
 128   0.0000       1.136922        30.9372 
 129   0.0000       1.150807        31.3151 
 130   0.0000       1.163652        31.6646 
 131   0.0000       1.231437        33.5091 
 132   0.0000       1.270476        34.5714 
 133   0.0000       1.289855        35.0987 
 134   0.0000       1.314976        35.7823 
 135   0.0000       1.322424        35.9850 
 136   0.0000       1.379812        37.5466 
 137   0.0000       1.401175        38.1279 
 138   0.0000       1.416861        38.5547 
 139   0.0000       1.476970        40.1904 
 140   0.0000       1.505869        40.9768 
 141   0.0000       1.544753        42.0349 
 142   0.0000       1.645091        44.7652 
 143   0.0000       1.667388        45.3719 
 144   0.0000       1.735259        47.2188 
 145   0.0000       1.861903        50.6650 
 146   0.0000       1.967738        53.5449 
 147   0.0000       2.061534        56.0972 
 148   0.0000       2.094454        56.9930 

                    ********************************
                    * MULLIKEN POPULATION ANALYSIS *
                    ********************************

-----------------------
MULLIKEN ATOMIC CHARGES
-----------------------
   0 C :    0.287260
   1 C :   -0.284144
   2 C :   -0.299949
   3 C :   -0.002074
   4 O :   -0.506202
   5 H :    0.166727
   6 H :    0.153860
   7 H :    0.150819
   8 H :    0.143662
   9 H :    0.161217
  10 H :    0.154202
  11 H :    0.143749
  12 C :   -0.022859
  13 H :    0.147277
  14 H :    0.152231
  15 O :   -0.514965
  16 C :    0.038388
  17 C :    0.075798
  18 C :   -0.311430
  19 C :   -0.031202
  20 O :   -0.527078
  21 H :    0.170785
  22 O :   -0.600682
  23 H :    0.184157
  24 H :    0.165198
  25 H :    0.158486
  26 H :    0.149280
  27 H :    0.148107
  28 H :    0.349381
Sum of atomic charges:   -0.0000000

--------------------------------
MULLIKEN REDUCED ORBITAL CHARGES
--------------------------------
  0 C s       :     3.235104  s :     3.235104
      pz      :     0.797046  p :     2.477636
      px      :     0.687868
      py      :     0.992721
  1 C s       :     3.310784  s :     3.310784
      pz      :     0.984206  p :     2.973359
      px      :     1.045323
      py      :     0.943830
  2 C s       :     3.316418  s :     3.316418
      pz      :     0.906023  p :     2.983530
      px      :     1.084845
      py      :     0.992663
  3 C s       :     3.261855  s :     3.261855
      pz      :     0.942213  p :     2.740219
      px      :     1.057489
      py      :     0.740518
  4 O s       :     3.953133  s :     3.953133
      pz      :     1.319907  p :     4.553070
      px      :     1.714471
      py      :     1.518691
  5 H s       :     0.833273  s :     0.833273
  6 H s       :     0.846140  s :     0.846140
  7 H s       :     0.849181  s :     0.849181
  8 H s       :     0.856338  s :     0.856338
  9 H s       :     0.838783  s :     0.838783
 10 H s       :     0.845798  s :     0.845798
 11 H s       :     0.856251  s :     0.856251
 12 C s       :     3.292448  s :     3.292448
      pz      :     0.724299  p :     2.730410
      px      :     0.961500
      py      :     1.044612
 13 H s       :     0.852723  s :     0.852723
 14 H s       :     0.847769  s :     0.847769
 15 O s       :     3.951340  s :     3.951340
      pz      :     1.464568  p :     4.563625
      px      :     1.268326
      py      :     1.830731
 16 C s       :     3.282025  s :     3.282025
      pz      :     0.750323  p :     2.679587
      px      :     1.008551
      py      :     0.920713
 17 C s       :     3.301822  s :     3.301822
      pz      :     0.935758  p :     2.622379
      px      :     0.785654
      py      :     0.900967
 18 C s       :     3.321267  s :     3.321267
      pz      :     1.020696  p :     2.990163
      px      :     0.950007
      py      :     1.019459
 19 C s       :     3.269933  s :     3.269933
      pz      :     1.020547  p :     2.761269
      px      :     0.918633
      py      :     0.822089
 20 O s       :     3.949947  s :     3.949947
      pz      :     1.484745  p :     4.577132
      px      :     1.491752
      py      :     1.600635
 21 H s       :     0.829215  s :     0.829215
 22 O s       :     3.952870  s :     3.952870
      pz      :     1.247226  p :     4.647812
      px      :     1.640902
      py      :     1.759683
 23 H s       :     0.815843  s :     0.815843
 24 H s       :     0.834802  s :     0.834802
 25 H s       :     0.841514  s :     0.841514
 26 H s       :     0.850720  s :     0.850720
 27 H s       :     0.851893  s :     0.851893
 28 H s       :     0.650619  s :     0.650619


                     *******************************
                     * LOEWDIN POPULATION ANALYSIS *
                     *******************************

----------------------
LOEWDIN ATOMIC CHARGES
----------------------
   0 C :    0.181889
   1 C :   -0.230938
   2 C :   -0.216258
   3 C :   -0.026783
   4 O :   -0.296739
   5 H :    0.108387
   6 H :    0.118837
   7 H :    0.117095
   8 H :    0.114841
   9 H :    0.118270
  10 H :    0.108991
  11 H :    0.103071
  12 C :   -0.047339
  13 H :    0.112945
  14 H :    0.107877
  15 O :   -0.364646
  16 C :    0.003704
  17 C :    0.038229
  18 C :   -0.236470
  19 C :   -0.038554
  20 O :   -0.324122
  21 H :    0.117650
  22 O :   -0.443631
  23 H :    0.132324
  24 H :    0.129026
  25 H :    0.118801
  26 H :    0.105156
  27 H :    0.102717
  28 H :    0.285670

-------------------------------
LOEWDIN REDUCED ORBITAL CHARGES
-------------------------------
  0 C s       :     2.978754  s :     2.978754
      pz      :     0.919263  p :     2.839357
      px      :     0.835961
      py      :     1.084133
  1 C s       :     2.979320  s :     2.979320
      pz      :     1.077518  p :     3.251619
      px      :     1.111195
      py      :     1.062905
  2 C s       :     2.972676  s :     2.972676
      pz      :     1.030327  p :     3.243582
      px      :     1.132778
      py      :     1.080477
  3 C s       :     2.983912  s :     2.983912
      pz      :     1.039439  p :     3.042870
      px      :     1.119529
      py      :     0.883902
  4 O s       :     3.606048  s :     3.606048
      pz      :     1.379753  p :     4.690691
      px      :     1.746278
      py      :     1.564660
  5 H s       :     0.891613  s :     0.891613
  6 H s       :     0.881163  s :     0.881163
  7 H s       :     0.882905  s :     0.882905
  8 H s       :     0.885159  s :     0.885159
  9 H s       :     0.881730  s :     0.881730
 10 H s       :     0.891009  s :     0.891009
 11 H s       :     0.896929  s :     0.896929
 12 C s       :     3.004810  s :     3.004810
      pz      :     0.877910  p :     3.042529
      px      :     1.055309
      py      :     1.109310
 13 H s       :     0.887055  s :     0.887055
 14 H s       :     0.892123  s :     0.892123
 15 O s       :     3.659979  s :     3.659979
      pz      :     1.509814  p :     4.704667
      px      :     1.333168
      py      :     1.861685
 16 C s       :     2.968603  s :     2.968603
      pz      :     0.917258  p :     3.027693
      px      :     1.062512
      py      :     1.047922
 17 C s       :     2.976471  s :     2.976471
      pz      :     0.996079  p :     2.985299
      px      :     0.946496
      py      :     1.042725
 18 C s       :     2.981362  s :     2.981362
      pz      :     1.096712  p :     3.255108
      px      :     1.064419
      py      :     1.093976
 19 C s       :     2.983509  s :     2.983509
      pz      :     1.104863  p :     3.055045
      px      :     1.006636
      py      :     0.943546
 20 O s       :     3.601859  s :     3.601859
      pz      :     1.535409  p :     4.722263
      px      :     1.542051
      py      :     1.644803
 21 H s       :     0.882350  s :     0.882350
 22 O s       :     3.694220  s :     3.694220
      pz      :     1.297225  p :     4.749410
      px      :     1.675094
      py      :     1.777091
 23 H s       :     0.867676  s :     0.867676
 24 H s       :     0.870974  s :     0.870974
 25 H s       :     0.881199  s :     0.881199
 26 H s       :     0.894844  s :     0.894844
 27 H s       :     0.897283  s :     0.897283
 28 H s       :     0.714330  s :     0.714330


                      *****************************
                      * MAYER POPULATION ANALYSIS *
                      *****************************

  NA   - Mulliken gross atomic population
  ZA   - Total nuclear charge
  QA   - Mulliken gross atomic charge
  VA   - Mayer's total valence
  BVA  - Mayer's bonded valence
  FA   - Mayer's free valence

  ATOM       NA         ZA         QA         VA         BVA        FA
  0 C      5.7127     6.0000     0.2873     3.6328     3.6328    -0.0000
  1 C      6.2841     6.0000    -0.2841     3.7123     3.7123     0.0000
  2 C      6.2999     6.0000    -0.2999     3.7607     3.7607    -0.0000
  3 C      6.0021     6.0000    -0.0021     3.6541     3.6541    -0.0000
  4 O      8.5062     8.0000    -0.5062     1.8217     1.8217     0.0000
  5 H      0.8333     1.0000     0.1667     0.9252     0.9252     0.0000
  6 H      0.8461     1.0000     0.1539     0.9308     0.9308     0.0000
  7 H      0.8492     1.0000     0.1508     0.9389     0.9389    -0.0000
  8 H      0.8563     1.0000     0.1437     0.9364     0.9364    -0.0000
  9 H      0.8388     1.0000     0.1612     0.9343     0.9343    -0.0000
 10 H      0.8458     1.0000     0.1542     0.9250     0.9250     0.0000
 11 H      0.8563     1.0000     0.1437     0.9280     0.9280    -0.0000
 12 C      6.0229     6.0000    -0.0229     3.6354     3.6354     0.0000
 13 H      0.8527     1.0000     0.1473     0.9362     0.9362     0.0000
 14 H      0.8478     1.0000     0.1522     0.9251     0.9251    -0.0000
 15 O      8.5150     8.0000    -0.5150     1.7713     1.7713     0.0000
 16 C      5.9616     6.0000     0.0384     3.5714     3.5714    -0.0000
 17 C      5.9242     6.0000     0.0758     3.6141     3.6141    -0.0000
 18 C      6.3114     6.0000    -0.3114     3.7052     3.7052    -0.0000
 19 C      6.0312     6.0000    -0.0312     3.6580     3.6580     0.0000
 20 O      8.5271     8.0000    -0.5271     1.7585     1.7585    -0.0000
 21 H      0.8292     1.0000     0.1708     0.9375     0.9375     0.0000
 22 O      8.6007     8.0000    -0.6007     1.7541     1.7541    -0.0000
 23 H      0.8158     1.0000     0.1842     0.9356     0.9356    -0.0000
 24 H      0.8348     1.0000     0.1652     0.9394     0.9394     0.0000
 25 H      0.8415     1.0000     0.1585     0.9317     0.9317    -0.0000
 26 H      0.8507     1.0000     0.1493     0.9269     0.9269    -0.0000
 27 H      0.8519     1.0000     0.1481     0.9286     0.9286    -0.0000
 28 H      0.6506     1.0000     0.3494     0.8484     0.8484    -0.0000

  Mayer bond orders larger than 0.100000
B(  0-C ,  1-C ) :   0.9213 B(  0-C ,  4-O ) :   0.9284 B(  0-C ,  5-H ) :   0.9048 
B(  0-C , 15-O ) :   0.8205 B(  1-C ,  2-C ) :   0.9511 B(  1-C ,  6-H ) :   0.9322 
B(  1-C ,  7-H ) :   0.9283 B(  2-C ,  3-C ) :   0.9548 B(  2-C ,  8-H ) :   0.9445 
B(  2-C ,  9-H ) :   0.9449 B(  3-C ,  4-O ) :   0.8350 B(  3-C , 10-H ) :   0.9335 
B(  3-C , 11-H ) :   0.9383 B( 12-C , 13-H ) :   0.9275 B( 12-C , 14-H ) :   0.9158 
B( 12-C , 15-O ) :   0.8532 B( 12-C , 16-C ) :   0.8804 B( 16-C , 17-C ) :   0.8959 
B( 16-C , 20-O ) :   0.8351 B( 16-C , 21-H ) :   0.9151 B( 17-C , 18-C ) :   0.9183 
B( 17-C , 22-O ) :   0.8780 B( 17-C , 23-H ) :   0.9161 B( 18-C , 19-C ) :   0.9375 
B( 18-C , 24-H ) :   0.9374 B( 18-C , 25-H ) :   0.9291 B( 19-C , 20-O ) :   0.8431 
B( 19-C , 26-H ) :   0.9346 B( 19-C , 27-H ) :   0.9372 B( 22-O , 28-H ) :   0.8096 


-------
TIMINGS
-------

Total SCF time: 0 days 0 hours 4 min 15 sec 

Total time                  ....     255.176 sec
Sum of individual times     ....     239.294 sec  ( 93.8%)

Fock matrix formation       ....     232.444 sec  ( 91.1%)
  XC integration            ....      22.894 sec  (  9.8% of F)
    Basis function eval.    ....       3.930 sec  ( 17.2% of XC)
    Density eval.           ....       1.820 sec  (  8.0% of XC)
    XC-Functional eval.     ....       0.910 sec  (  4.0% of XC)
    XC-Potential eval.      ....       2.391 sec  ( 10.4% of XC)
Diagonalization             ....       0.202 sec  (  0.1%)
Density matrix formation    ....       0.009 sec  (  0.0%)
Population analysis         ....       0.072 sec  (  0.0%)
Initial guess               ....       1.464 sec  (  0.6%)
Orbital Transformation      ....       0.000 sec  (  0.0%)
Orbital Orthonormalization  ....       0.000 sec  (  0.0%)
DIIS solution               ....       0.140 sec  (  0.1%)
SOSCF solution              ....       0.091 sec  (  0.0%)
Grid generation             ....       4.872 sec  (  1.9%)

-------------------------   --------------------
FINAL SINGLE POINT ENERGY      -652.828637623114
-------------------------   --------------------

------------------------------------------------------------------------------
                         ORCA SCF GRADIENT CALCULATION
------------------------------------------------------------------------------

Gradient of the Kohn-Sham DFT energy:
Kohn-Sham wavefunction type      ... RKS
Hartree-Fock exchange scaling    ...    0.200
Number of operators              ...    1
Number of atoms                  ...   29
Basis set dimensions             ...  149
Integral neglect threshold       ... 2.5e-11
Integral primitive cutoff        ... 2.5e-12

Nuclear repulsion gradient       ... done
One Electron Gradient            ... done
Pre-screening matrix             ... done
Starting the two electron gradient:
Two electron gradient done
Exchange-correlation gradient    ... done

------------------
CARTESIAN GRADIENT
------------------

   1   C   :    0.006690070   -0.001314742   -0.006165313
   2   C   :    0.005877537   -0.003727528   -0.005100657
   3   C   :   -0.000198744   -0.000529578   -0.001848017
   4   C   :    0.000921894   -0.005931938   -0.003987016
   5   O   :    0.020236880   -0.007485581    0.021686831
   6   H   :    0.001752125    0.000875770   -0.004555341
   7   H   :    0.000035415    0.002021178    0.000367634
   8   H   :   -0.001932589    0.000081832   -0.002168446
   9   H   :   -0.000653771    0.000709362    0.000232050
  10   H   :   -0.000636230    0.001752976    0.000648218
  11   H   :   -0.000436467    0.000975322    0.001575650
  12   H   :   -0.000295629    0.001321686    0.000910498
  13   C   :   -0.022365289    0.003718681   -0.005377769
  14   H   :   -0.004955253    0.000599478   -0.011587113
  15   H   :   -0.001451237    0.000926943   -0.005132661
  16   O   :   -0.009563644   -0.001266535    0.023684806
  17   C   :    0.001067631    0.001647612   -0.011549177
  18   C   :   -0.010494985    0.004422423    0.031211393
  19   C   :   -0.001604318   -0.000728376    0.002733202
  20   C   :    0.004324872    0.002325857   -0.000013323
  21   O   :    0.000406210   -0.001113978   -0.003660158
  22   H   :    0.000722239    0.004686354    0.005409121
  23   O   :    0.029423887   -0.032626771    0.028301137
  24   H   :   -0.005774273    0.003026550    0.008825841
  25   H   :   -0.002928069   -0.000798632   -0.001510030
  26   H   :   -0.001006639    0.001266672    0.000364061
  27   H   :   -0.000455979    0.000004367    0.000906520
  28   H   :    0.000451676   -0.000284619    0.001048208
  29   H   :   -0.007157320    0.025445213   -0.065250147

Difference to translation invariance:
           :    0.0000000001   -0.0000000001   -0.0000000001

Norm of the cartesian gradient     ...    0.1084033158
RMS gradient                       ...    0.0116220554
MAX gradient                       ...    0.0652501469

-------
TIMINGS
-------

Total SCF gradient time            ...       34.538 sec

One electron gradient       ....       0.450 sec  (  1.3%)
Prescreening matrices       ....       0.083 sec  (  0.2%)
Two electron gradient       ....      21.371 sec  ( 61.9%)
XC gradient                 ....      12.307 sec  ( 35.6%)
------------------------------------------------------------------------------
                         ORCA GEOMETRY RELAXATION STEP
------------------------------------------------------------------------------

Reading the OPT-File                    .... done
Getting information on internals        .... done
Copying old internal coords+grads       .... done
Making the new internal coordinates     .... (new redundants).... done
Validating the new internal coordinates .... (new redundants).... done
Calculating the B-matrix                .... done
Calculating the G,G- and P matrices     .... done
Transforming gradient to internals      .... done
Projecting the internal gradient        .... done
Number of atoms                         ....  29
Number of internal coordinates          .... 172
Current Energy                          ....  -652.828637623 Eh
Current gradient norm                   ....     0.108403316 Eh/bohr
Maximum allowed component of the step   ....  0.300
Current trust radius                    ....  0.300
Evaluating the initial hessian          ....  (Almloef) done
Projecting the Hessian                  .... done
Forming the augmented Hessian           .... done
Diagonalizing the augmented Hessian     .... done
Last element of RFO vector              ....  0.945172743
Lowest eigenvalues of augmented Hessian:
 -0.035027037  0.007821335  0.032989477  0.033127928  0.036559684
Length of the computed step             ....  0.345514406
Warning: the length of the step is outside the trust region - taking restricted step instead
The input lambda is                     ....    -0.035027
   iter:   1  x=   -0.062612  g=    1.065075 f(x)=     0.029380
   iter:   2  x=   -0.072100  g=    0.668496 f(x)=     0.006343
   iter:   3  x=   -0.072736  g=    0.591953 f(x)=     0.000377
   iter:   4  x=   -0.072739  g=    0.587390 f(x)=     0.000001
   iter:   5  x=   -0.072739  g=    0.587372 f(x)=     0.000000
   iter:   6  x=   -0.072739  g=    0.587372 f(x)=     0.000000
The output lambda is                    ....    -0.072739 (6 iterations)
The final length of the internal step   ....  0.300000000
Converting the step to cartesian space:
 Initial RMS(Int)=    0.0228747855
Transforming coordinates:
 Iter   0:  RMS(Cart)=    0.1040660056 RMS(Int)=    0.8294093568
 Iter   1:  RMS(Cart)=    0.0046309475 RMS(Int)=    0.6774226454
 Iter   2:  RMS(Cart)=    0.0003070634 RMS(Int)=    0.4790705033
[...]
  29   2.0000      -0.486335       -13.2338 
  30   2.0000      -0.477625       -12.9968 
  31   2.0000      -0.462830       -12.5942 
  32   2.0000      -0.451249       -12.2791 
  33   2.0000      -0.439501       -11.9594 
  34   2.0000      -0.425137       -11.5686 
  35   2.0000      -0.419161       -11.4060 
  36   2.0000      -0.404434       -11.0052 
  37   2.0000      -0.399247       -10.8641 
  38   2.0000      -0.378396       -10.2967 
  39   2.0000      -0.374733       -10.1970 
  40   2.0000      -0.365870        -9.9558 
  41   2.0000      -0.358791        -9.7632 
  42   2.0000      -0.354613        -9.6495 
  43   2.0000      -0.337307        -9.1786 
  44   2.0000      -0.316248        -8.6056 
  45   2.0000      -0.313130        -8.5207 
  46   2.0000      -0.305717        -8.3190 
  47   2.0000      -0.275838        -7.5059 
  48   2.0000      -0.259461        -7.0603 
  49   2.0000      -0.256926        -6.9913 
  50   2.0000      -0.245411        -6.6780 
  51   0.0000       0.057427         1.5627 
  52   0.0000       0.072302         1.9674 
  53   0.0000       0.084870         2.3094 
  54   0.0000       0.093427         2.5423 
  55   0.0000       0.096726         2.6320 
  56   0.0000       0.112204         3.0532 
  57   0.0000       0.116885         3.1806 
  58   0.0000       0.118070         3.2129 
  59   0.0000       0.127846         3.4789 
  60   0.0000       0.138854         3.7784 
  61   0.0000       0.144391         3.9291 
  62   0.0000       0.152486         4.1494 
  63   0.0000       0.155776         4.2389 
  64   0.0000       0.163041         4.4366 
  65   0.0000       0.167146         4.5483 
  66   0.0000       0.181761         4.9460 
  67   0.0000       0.183892         5.0039 
  68   0.0000       0.195913         5.3311 
  69   0.0000       0.211274         5.7490 
  70   0.0000       0.217749         5.9253 
  71   0.0000       0.221301         6.0219 
  72   0.0000       0.229200         6.2368 
  73   0.0000       0.235495         6.4082 
  74   0.0000       0.251533         6.8446 
  75   0.0000       0.253568         6.8999 
  76   0.0000       0.264494         7.1972 
  77   0.0000       0.273374         7.4389 
  78   0.0000       0.291142         7.9224 
  79   0.0000       0.307194         8.3592 
  80   0.0000       0.326452         8.8832 
  81   0.0000       0.525717        14.3055 
  82   0.0000       0.531969        14.4756 
  83   0.0000       0.545257        14.8372 
  84   0.0000       0.547940        14.9102 
  85   0.0000       0.553057        15.0495 
  86   0.0000       0.558498        15.1975 
  87   0.0000       0.570951        15.5364 
  88   0.0000       0.578069        15.7300 
  89   0.0000       0.587809        15.9951 
  90   0.0000       0.593561        16.1516 
  91   0.0000       0.612816        16.6756 
  92   0.0000       0.623916        16.9776 
  93   0.0000       0.632379        17.2079 
  94   0.0000       0.644699        17.5432 
  95   0.0000       0.653350        17.7785 
  96   0.0000       0.666598        18.1391 
  97   0.0000       0.671241        18.2654 
  98   0.0000       0.695694        18.9308 
  99   0.0000       0.728268        19.8172 
 100   0.0000       0.744744        20.2655 
 101   0.0000       0.755152        20.5487 
 102   0.0000       0.780576        21.2406 
 103   0.0000       0.816513        22.2184 
 104   0.0000       0.827004        22.5039 
 105   0.0000       0.839018        22.8308 
 106   0.0000       0.846595        23.0370 
 107   0.0000       0.851199        23.1623 
 108   0.0000       0.870204        23.6795 
 109   0.0000       0.883824        24.0501 
 110   0.0000       0.889421        24.2024 
 111   0.0000       0.898099        24.4385 
 112   0.0000       0.900954        24.5162 
 113   0.0000       0.910499        24.7759 
 114   0.0000       0.925097        25.1732 
 115   0.0000       0.933764        25.4090 
 116   0.0000       0.940146        25.5827 
 117   0.0000       0.949621        25.8405 
 118   0.0000       0.960732        26.1429 
 119   0.0000       0.967285        26.3212 
 120   0.0000       0.990240        26.9458 
 121   0.0000       1.002196        27.2711 
 122   0.0000       1.005862        27.3709 
 123   0.0000       1.027869        27.9697 
 124   0.0000       1.030922        28.0528 
 125   0.0000       1.062464        28.9111 
 126   0.0000       1.089970        29.6596 
 127   0.0000       1.093529        29.7564 
 128   0.0000       1.132035        30.8042 
 129   0.0000       1.146937        31.2098 
 130   0.0000       1.170016        31.8378 
 131   0.0000       1.245042        33.8793 
 132   0.0000       1.269625        34.5482 
 133   0.0000       1.284598        34.9557 
 134   0.0000       1.317673        35.8557 
 135   0.0000       1.330862        36.2146 
 136   0.0000       1.386529        37.7294 
 137   0.0000       1.418372        38.5959 
 138   0.0000       1.425657        38.7941 
 139   0.0000       1.480997        40.3000 
 140   0.0000       1.525314        41.5059 
 141   0.0000       1.557327        42.3770 
 142   0.0000       1.651317        44.9346 
 143   0.0000       1.687728        45.9254 
 144   0.0000       1.748901        47.5900 
 145   0.0000       1.894560        51.5536 
 146   0.0000       1.985220        54.0206 
 147   0.0000       2.062001        56.1099 
 148   0.0000       2.120391        57.6988 

                    ********************************
                    * MULLIKEN POPULATION ANALYSIS *
                    ********************************

-----------------------
MULLIKEN ATOMIC CHARGES
-----------------------
   0 C :    0.294385
   1 C :   -0.281609
   2 C :   -0.297298
   3 C :   -0.001061
   4 O :   -0.503283
   5 H :    0.154155
   6 H :    0.149968
   7 H :    0.145191
   8 H :    0.142672
   9 H :    0.159648
  10 H :    0.154854
  11 H :    0.142618
  12 C :    0.000180
  13 H :    0.149314
  14 H :    0.147432
  15 O :   -0.520900
  16 C :    0.024720
  17 C :    0.085738
  18 C :   -0.303047
  19 C :   -0.033233
  20 O :   -0.526846
  21 H :    0.161913
  22 O :   -0.603369
  23 H :    0.174114
  24 H :    0.163565
  25 H :    0.156740
  26 H :    0.149371
  27 H :    0.150704
  28 H :    0.363366
Sum of atomic charges:   -0.0000000

--------------------------------
MULLIKEN REDUCED ORBITAL CHARGES
--------------------------------
  0 C s       :     3.204452  s :     3.204452
      pz      :     0.791297  p :     2.501163
      px      :     0.698040
      py      :     1.011826
  1 C s       :     3.307969  s :     3.307969
      pz      :     0.989114  p :     2.973640
      px      :     1.035406
      py      :     0.949120
  2 C s       :     3.315270  s :     3.315270
      pz      :     0.905523  p :     2.982028
      px      :     1.082504
      py      :     0.994000
  3 C s       :     3.262856  s :     3.262856
      pz      :     0.932291  p :     2.738205
      px      :     1.066968
      py      :     0.738947
  4 O s       :     3.941065  s :     3.941065
      pz      :     1.257911  p :     4.562218
      px      :     1.785595
      py      :     1.518712
  5 H s       :     0.845845  s :     0.845845
  6 H s       :     0.850032  s :     0.850032
  7 H s       :     0.854809  s :     0.854809
  8 H s       :     0.857328  s :     0.857328
  9 H s       :     0.840352  s :     0.840352
 10 H s       :     0.845146  s :     0.845146
 11 H s       :     0.857382  s :     0.857382
 12 C s       :     3.256815  s :     3.256815
      pz      :     0.737618  p :     2.743005
      px      :     0.955189
      py      :     1.050198
 13 H s       :     0.850686  s :     0.850686
 14 H s       :     0.852568  s :     0.852568
 15 O s       :     3.922213  s :     3.922213
      pz      :     1.491414  p :     4.598687
      px      :     1.282462
      py      :     1.824812
 16 C s       :     3.283233  s :     3.283233
      pz      :     0.803583  p :     2.692047
      px      :     0.969463
      py      :     0.919000
 17 C s       :     3.261984  s :     3.261984
      pz      :     0.900159  p :     2.652278
      px      :     0.826496
      py      :     0.925623
 18 C s       :     3.317669  s :     3.317669
      pz      :     1.037605  p :     2.985378
      px      :     0.943636
      py      :     1.004137
 19 C s       :     3.272337  s :     3.272337
      pz      :     1.038167  p :     2.760896
      px      :     0.909047
      py      :     0.813682
 20 O s       :     3.949472  s :     3.949472
      pz      :     1.559308  p :     4.577374
      px      :     1.432624
      py      :     1.585442
 21 H s       :     0.838087  s :     0.838087
 22 O s       :     3.921178  s :     3.921178
      pz      :     1.283373  p :     4.682191
      px      :     1.687931
      py      :     1.710887
 23 H s       :     0.825886  s :     0.825886
 24 H s       :     0.836435  s :     0.836435
 25 H s       :     0.843260  s :     0.843260
 26 H s       :     0.850629  s :     0.850629
 27 H s       :     0.849296  s :     0.849296
 28 H s       :     0.636634  s :     0.636634


                     *******************************
                     * LOEWDIN POPULATION ANALYSIS *
                     *******************************

----------------------
LOEWDIN ATOMIC CHARGES
----------------------
   0 C :    0.177282
   1 C :   -0.233379
   2 C :   -0.215909
   3 C :   -0.024681
   4 O :   -0.301022
   5 H :    0.100757
   6 H :    0.117071
   7 H :    0.113508
   8 H :    0.114739
   9 H :    0.117455
  10 H :    0.109722
  11 H :    0.102878
  12 C :   -0.044247
  13 H :    0.112397
  14 H :    0.103066
  15 O :   -0.337695
  16 C :   -0.001588
  17 C :    0.033477
  18 C :   -0.240160
  19 C :   -0.038298
  20 O :   -0.326954
  21 H :    0.111682
  22 O :   -0.413537
  23 H :    0.123504
  24 H :    0.127803
  25 H :    0.119428
  26 H :    0.105800
  27 H :    0.104225
  28 H :    0.282674

-------------------------------
LOEWDIN REDUCED ORBITAL CHARGES
-------------------------------
  0 C s       :     2.953152  s :     2.953152
      pz      :     0.921185  p :     2.869566
      px      :     0.860183
      py      :     1.088197
  1 C s       :     2.980586  s :     2.980586
      pz      :     1.077630  p :     3.252793
      px      :     1.109413
      py      :     1.065750
  2 C s       :     2.971210  s :     2.971210
      pz      :     1.030224  p :     3.244700
      px      :     1.132201
      py      :     1.082274
  3 C s       :     2.983983  s :     2.983983
      pz      :     1.034933  p :     3.040698
      px      :     1.125407
      py      :     0.880358
  4 O s       :     3.592387  s :     3.592387
      pz      :     1.330880  p :     4.708634
      px      :     1.812006
      py      :     1.565749
  5 H s       :     0.899243  s :     0.899243
  6 H s       :     0.882929  s :     0.882929
  7 H s       :     0.886492  s :     0.886492
  8 H s       :     0.885261  s :     0.885261
  9 H s       :     0.882545  s :     0.882545
 10 H s       :     0.890278  s :     0.890278
 11 H s       :     0.897122  s :     0.897122
 12 C s       :     2.978838  s :     2.978838
      pz      :     0.907001  p :     3.065408
      px      :     1.045878
      py      :     1.112530
 13 H s       :     0.887603  s :     0.887603
 14 H s       :     0.896934  s :     0.896934
 15 O s       :     3.587339  s :     3.587339
      pz      :     1.537426  p :     4.750356
      px      :     1.354960
      py      :     1.857971
 16 C s       :     2.968839  s :     2.968839
      pz      :     0.951846  p :     3.032749
      px      :     1.033592
      py      :     1.047312
 17 C s       :     2.953905  s :     2.953905
      pz      :     0.981232  p :     3.012618
      px      :     0.976621
      py      :     1.054764
 18 C s       :     2.983487  s :     2.983487
      pz      :     1.107498  p :     3.256672
      px      :     1.061637
      py      :     1.087538
 19 C s       :     2.985171  s :     2.985171
      pz      :     1.114325  p :     3.053126
      px      :     1.001087
      py      :     0.937714
 20 O s       :     3.604353  s :     3.604353
      pz      :     1.603033  p :     4.722601
      px      :     1.488742
      py      :     1.630826
 21 H s       :     0.888318  s :     0.888318
 22 O s       :     3.613450  s :     3.613450
      pz      :     1.341353  p :     4.800087
      px      :     1.723858
      py      :     1.734875
 23 H s       :     0.876496  s :     0.876496
 24 H s       :     0.872197  s :     0.872197
 25 H s       :     0.880572  s :     0.880572
 26 H s       :     0.894200  s :     0.894200
 27 H s       :     0.895775  s :     0.895775
 28 H s       :     0.717326  s :     0.717326


                      *****************************
                      * MAYER POPULATION ANALYSIS *
                      *****************************

  NA   - Mulliken gross atomic population
  ZA   - Total nuclear charge
  QA   - Mulliken gross atomic charge
  VA   - Mayer's total valence
  BVA  - Mayer's bonded valence
  FA   - Mayer's free valence

  ATOM       NA         ZA         QA         VA         BVA        FA
  0 C      5.7056     6.0000     0.2944     3.6580     3.6580    -0.0000
  1 C      6.2816     6.0000    -0.2816     3.7108     3.7108    -0.0000
  2 C      6.2973     6.0000    -0.2973     3.7635     3.7635    -0.0000
  3 C      6.0011     6.0000    -0.0011     3.6586     3.6586    -0.0000
  4 O      8.5033     8.0000    -0.5033     1.7993     1.7993    -0.0000
  5 H      0.8458     1.0000     0.1542     0.9280     0.9280    -0.0000
  6 H      0.8500     1.0000     0.1500     0.9326     0.9326    -0.0000
  7 H      0.8548     1.0000     0.1452     0.9398     0.9398     0.0000
  8 H      0.8573     1.0000     0.1427     0.9368     0.9368    -0.0000
  9 H      0.8404     1.0000     0.1596     0.9346     0.9346    -0.0000
 10 H      0.8451     1.0000     0.1549     0.9257     0.9257    -0.0000
 11 H      0.8574     1.0000     0.1426     0.9289     0.9289     0.0000
 12 C      5.9998     6.0000     0.0002     3.6408     3.6408    -0.0000
 13 H      0.8507     1.0000     0.1493     0.9351     0.9351    -0.0000
 14 H      0.8526     1.0000     0.1474     0.9253     0.9253    -0.0000
 15 O      8.5209     8.0000    -0.5209     1.7274     1.7274    -0.0000
 16 C      5.9753     6.0000     0.0247     3.5777     3.5777    -0.0000
 17 C      5.9143     6.0000     0.0857     3.6247     3.6247    -0.0000
 18 C      6.3030     6.0000    -0.3030     3.6976     3.6976    -0.0000
 19 C      6.0332     6.0000    -0.0332     3.6584     3.6584    -0.0000
 20 O      8.5268     8.0000    -0.5268     1.7581     1.7581    -0.0000
 21 H      0.8381     1.0000     0.1619     0.9371     0.9371    -0.0000
 22 O      8.6034     8.0000    -0.6034     1.7434     1.7434    -0.0000
 23 H      0.8259     1.0000     0.1741     0.9327     0.9327    -0.0000
 24 H      0.8364     1.0000     0.1636     0.9392     0.9392    -0.0000
 25 H      0.8433     1.0000     0.1567     0.9334     0.9334     0.0000
 26 H      0.8506     1.0000     0.1494     0.9269     0.9269    -0.0000
 27 H      0.8493     1.0000     0.1507     0.9276     0.9276    -0.0000
 28 H      0.6366     1.0000     0.3634     0.8328     0.8328    -0.0000

  Mayer bond orders larger than 0.100000
B(  0-C ,  1-C ) :   0.9272 B(  0-C ,  4-O ) :   0.9339 B(  0-C ,  5-H ) :   0.9107 
B(  0-C , 15-O ) :   0.8291 B(  1-C ,  2-C ) :   0.9489 B(  1-C ,  6-H ) :   0.9342 
B(  1-C ,  7-H ) :   0.9310 B(  2-C ,  3-C ) :   0.9555 B(  2-C ,  8-H ) :   0.9448 
B(  2-C ,  9-H ) :   0.9453 B(  3-C ,  4-O ) :   0.8340 B(  3-C , 10-H ) :   0.9347 
B(  3-C , 11-H ) :   0.9397 B( 12-C , 13-H ) :   0.9335 B( 12-C , 14-H ) :   0.9152 
B( 12-C , 15-O ) :   0.8436 B( 12-C , 16-C ) :   0.8871 B( 16-C , 17-C ) :   0.8986 
B( 16-C , 20-O ) :   0.8338 B( 16-C , 21-H ) :   0.9191 B( 17-C , 18-C ) :   0.9122 
B( 17-C , 22-O ) :   0.8889 B( 17-C , 23-H ) :   0.9230 B( 18-C , 19-C ) :   0.9406 
B( 18-C , 24-H ) :   0.9377 B( 18-C , 25-H ) :   0.9326 B( 19-C , 20-O ) :   0.8398 
B( 19-C , 26-H ) :   0.9352 B( 19-C , 27-H ) :   0.9373 B( 22-O , 28-H ) :   0.7958 


-------
TIMINGS
-------

Total SCF time: 0 days 0 hours 0 min 51 sec 

Total time                  ....      51.587 sec
Sum of individual times     ....      51.070 sec  ( 99.0%)

Fock matrix formation       ....      47.045 sec  ( 91.2%)
  XC integration            ....       5.576 sec  ( 11.9% of F)
    Basis function eval.    ....       1.653 sec  ( 29.7% of XC)
    Density eval.           ....       0.718 sec  ( 12.9% of XC)
    XC-Functional eval.     ....       0.341 sec  (  6.1% of XC)
    XC-Potential eval.      ....       0.974 sec  ( 17.5% of XC)
Diagonalization             ....       0.006 sec  (  0.0%)
Density matrix formation    ....       0.003 sec  (  0.0%)
Population analysis         ....       0.011 sec  (  0.0%)
Initial guess               ....       0.009 sec  (  0.0%)
Orbital Transformation      ....       0.000 sec  (  0.0%)
Orbital Orthonormalization  ....       0.005 sec  (  0.0%)
DIIS solution               ....       0.001 sec  (  0.0%)
SOSCF solution              ....       0.050 sec  (  0.1%)
Grid generation             ....       3.944 sec  (  7.6%)

-------------------------   --------------------
FINAL SINGLE POINT ENERGY      -652.855386694889
-------------------------   --------------------

                                *** OPTIMIZATION RUN DONE ***

                            ***************************************
                            *     ORCA property calculations      *
                            ***************************************

                                    ---------------------
                                    Active property flags
                                    ---------------------
   (+) Dipole Moment


------------------------------------------------------------------------------
                       ORCA ELECTRIC PROPERTIES CALCULATION
------------------------------------------------------------------------------

Dipole Moment Calculation                       ... on
Quadrupole Moment Calculation                   ... off
Polarizability Calculation                      ... off
GBWName                                         ... project_8050/ensemble_180_30.gbw
Electron density file                           ... project_8050/ensemble_180_30.scfp
The origin for moment calculation is the CENTER OF MASS  = (-41.693494, 49.498780 84.968974)

-------------
DIPOLE MOMENT
-------------
                                X             Y             Z
Electronic contribution:      0.07245      -2.50318      -0.74977
Nuclear contribution   :     -0.36233       3.18569       0.29101
                        -----------------------------------------
Total Dipole Moment    :     -0.28988       0.68252      -0.45876
                        -----------------------------------------
Magnitude (a.u.)       :      0.87197
Magnitude (Debye)      :      2.21636



--------------------
Rotational spectrum 
--------------------
 
Rotational constants in cm-1:     0.060272     0.013161     0.012624 
Rotational constants in MHz :  1806.900262   394.548841   378.462987 

 Dipole components along the rotational axes: 
x,y,z [a.u.] :    -0.309014     0.720728    -0.381296 
x,y,z [Debye]:    -0.785451     1.831945    -0.969178 

 

Timings for individual modules:

Sum of individual times         ...     1226.301 sec (=  20.438 min)
GTO integral calculation        ...        4.114 sec (=   0.069 min)   0.3 %
SCF iterations                  ...      991.141 sec (=  16.519 min)  80.8 %
SCF Gradient evaluation         ...      222.192 sec (=   3.703 min)  18.1 %
Geometry relaxation             ...        8.854 sec (=   0.148 min)   0.7 %
                             ****ORCA TERMINATED NORMALLY****
TOTAL RUN TIME: 0 days 0 hours 20 minutes 38 seconds 261 msec
