
                                 *****************
                                 * O   R   C   A *
                                 *****************

           --- An Ab Initio, DFT and Semiempirical electronic structure package ---

                  #######################################################
                  #                        -***-                        #
                  #          Department of theory and spectroscopy      #
                  #               Directorship: Frank Neese             #
                  #        Max Planck Institute fuer Kohlenforschung    #
                  #                Kaiser Wilhelm Platz 1               #
                  #                 D-45470 Muelheim/Ruhr               #
                  #                      Germany                        #
                  #                                                     #
                  #                  All rights reserved                #
                  #                        -***-                        #
                  #######################################################


                         Program Version 4.2.0 -  RELEASE  -


 With contributions from (in alphabetic order):
   Daniel Aravena         : Magnetic Suceptibility
   Michael Atanasov       : Ab Initio Ligand Field Theory (pilot matlab implementation)
   Alexander A. Auer      : GIAO ZORA, VPT2
   Ute Becker             : Parallelization
   Giovanni Bistoni       : ED, misc. LED, open-shell LED, HFLED
   Martin Brehm           : Molecular dynamics
   Dmytro Bykov           : SCF Hessian
   Vijay G. Chilkuri      : MRCI spin determinant printing, contributions to CSF-ICE
   Dipayan Datta          : RHF DLPNO-CCSD density
   Achintya Kumar Dutta   : EOM-CC, STEOM-CC
   Dmitry Ganyushin       : Spin-Orbit,Spin-Spin,Magnetic field MRCI
   Miquel Garcia          : C-PCM Hessian, Gaussian charge scheme
   Yang Guo               : DLPNO-NEVPT2, CIM, IAO-localization
   Andreas Hansen         : Spin unrestricted coupled pair/coupled cluster methods
   Benjamin Helmich-Paris : CASSCF linear response (MC-RPA)
   Lee Huntington         : MR-EOM, pCC
   Robert Izsak           : Overlap fitted RIJCOSX, COSX-SCS-MP3, EOM
   Christian Kollmar      : KDIIS, OOCD, Brueckner-CCSD(T), CCSD density
   Simone Kossmann        : Meta GGA functionals, TD-DFT gradient, OOMP2, MP2 Hessian
   Martin Krupicka        : AUTO-CI
   Lucas Lang             : DCDCAS
   Dagmar Lenk            : GEPOL surface, SMD
   Dimitrios Liakos       : Extrapolation schemes; Compound Job, initial MDCI parallelization
   Dimitrios Manganas     : Further ROCIS development; embedding schemes
   Dimitrios Pantazis     : SARC Basis sets
   Taras Petrenko         : DFT Hessian,TD-DFT gradient, ASA, ECA, R-Raman, ABS, FL, XAS/XES, NRVS
   Peter Pinski           : DLPNO-MP2, DLPNO-MP2 Gradient
   Christoph Reimann      : Effective Core Potentials
   Marius Retegan         : Local ZFS, SOC
   Christoph Riplinger    : Optimizer, TS searches, QM/MM, DLPNO-CCSD(T), (RO)-DLPNO pert. Triples
   Tobias Risthaus        : Range-separated hybrids, TD-DFT gradient, RPA, STAB
   Michael Roemelt        : Original ROCIS implementation
   Masaaki Saitow         : Open-shell DLPNO-CCSD energy and density
   Barbara Sandhoefer     : DKH picture change effects
   Avijit Sen             : IP-ROCIS
   Kantharuban Sivalingam : CASSCF convergence, NEVPT2, FIC-MRCI
   Bernardo de Souza      : ESD, SOC TD-DFT
   Georgi Stoychev        : AutoAux, RI-MP2 NMR
   Willem Van den Heuvel  : Paramagnetic NMR
   Boris Wezisla          : Elementary symmetry handling
   Frank Wennmohs         : Technical directorship


 We gratefully acknowledge several colleagues who have allowed us to
 interface, adapt or use parts of their codes:
   Stefan Grimme, W. Hujo, H. Kruse,             : VdW corrections, initial TS optimization,
                  C. Bannwarth                     DFT functionals, gCP, sTDA/sTD-DF
   Ed Valeev, F. Pavosevic, A. Kumar             : LibInt (2-el integral package), F12 methods
   Garnet Chan, S. Sharma, J. Yang, R. Olivares  : DMRG
   Ulf Ekstrom                                   : XCFun DFT Library
   Mihaly Kallay                                 : mrcc  (arbitrary order and MRCC methods)
   Andreas Klamt, Michael Diedenhofen            : otool_cosmo (COSMO solvation model)
   Jiri Pittner, Ondrej Demel                    : Mk-CCSD
   Frank Weinhold                                : gennbo (NPA and NBO analysis)
   Christopher J. Cramer and Donald G. Truhlar   : smd solvation model
   Lars Goerigk                                  : TD-DFT with DH, B97 family of functionals
   V. Asgeirsson, H. Jonsson                     : NEB implementation
   FAccTs GmbH                                   : IRC, NEB, NEB-TS, Multilevel, MM, QM/MM, CI optimization
   S Lehtola, MJT Oliveira, MAL Marques          : LibXC Library


 Your calculation uses the libint2 library for the computation of 2-el integrals
 For citations please refer to: http://libint.valeyev.net

 Your ORCA version has been built with support for libXC version: 4.2.3
 For citations please refer to: https://tddft.org/programs/libxc/

 This ORCA versions uses:
   CBLAS   interface :  Fast vector & matrix operations
   LAPACKE interface :  Fast linear algebra routines
   SCALAPACK package :  Parallel linear algebra routines


----- Orbital basis set information -----
Your calculation utilizes the basis: 6-31G
   H-He, Li-Ne : W. J. Hehre, R. Ditchfield and J.A. Pople, J. Chem. Phys. 56, 2257 (1972).
                 Note: He and Ne are unpublished basis sets taken from the Gaussian program.
                 Note: Li and B from J. D. Dill and J. A. Pople, J. Chem. Phys. 62, 2921 (1975).
   Na - Ar     : M. M. Francl, W. J. Pietro, W. J. Hehre, J. S. Binkley, M. S. Gordon, 
                 D. J. DeFrees and J. A. Pople, J. Chem. Phys. 77, 3654 (1982).
   K - Zn      : V. A. Rassolov, J. A. Pople, M. A. Ratner, and T. L. Windus, J. Chem. Phys. 109, 1223 (1998).

================================================================================
                                        WARNINGS
                       Please study these warnings very carefully!
================================================================================


WARNING: Geometry Optimization
  ===> : Switching off AutoStart
         For restart on a previous wavefunction, please use MOREAD

INFO   : the flag for use of LIBINT has been found!

================================================================================
                                       INPUT FILE
================================================================================
NAME = project_8048/ensemble_195_120.inp
|  1> # Test redundant internal optimization
|  2> #
|  3> ! RKS B3LYP  Opt TightSCF SmallPrint
|  4> 
|  5> %basis
|  6>         Basis "6-31G"
|  7> end
|  8> 
|  9> %geom
| 10> Constraints
| 11> { D 4  0  15  12  195.0   C } # D for Dihedral angle
| 12> { D 0  15  12  16  120.0   C } # D for Dihedral angle
| 13> { D 0  4  3  2   C } # D for Dihedral angle
| 14> { D 4  3  2  1   C } # D for Dihedral angle
| 15> { D 3  2  1  0   C } # D for Dihedral angle
| 16> { D 2  1  0  4   C } # D for Dihedral angle
| 17> { D 1  0  4  3   C } # D for Dihedral angle
| 18> { D 16  20  19  18   C } # D for Dihedral angle
| 19> { D 20  19  18  17   C } # D for Dihedral angle
| 20> { D 19  18  17  16   C } # D for Dihedral angle
| 21> { D 18  17  16  20   C } # D for Dihedral angle
| 22> { D 17  16  20  19   C } # D for Dihedral angle
| 23> { D 15  12  16  20   C } # D for Dihedral angle
| 24> end
| 25> end
| 26> 
| 27> 
| 28> #%pal 
| 29> #nprocs 8
| 30> #end
| 31> 
| 32> * xyz 0 1
| 33> C  -21.048   26.222   46.251
| 34> C  -20.361   27.558   45.944
| 35> C  -20.329   28.222   47.341
| 36> C  -20.110   27.022   48.296
| 37> O  -20.473   25.807   47.535
| 38> H  -20.833   25.428   45.533
| 39> H  -19.344   27.382   45.576
| 40> H  -20.898   28.157   45.201
| 41> H  -19.543   28.978   47.434
| 42> H  -21.289   28.710   47.548
| 43> H  -20.733   27.082   49.195
| 44> H  -19.064   26.913   48.597
| 45> C  -23.353   26.472   45.026
| 46> H  -23.872   27.437   44.960
| 47> H  -22.654   26.400   44.183
| 48> O  -22.586   26.394   46.375
| 49> C  -24.405   25.340   44.867
| 50> C  -23.765   23.957   45.038
| 51> C  -23.657   23.850   46.578
| 52> C  -24.927   24.587   47.072
| 53> O  -25.402   25.412   45.940
| 54> H  -24.938   25.477   43.925
| 55> O  -24.710   22.860   44.478
| 56> H  -22.795   23.866   44.538
| 57> H  -23.611   22.815   46.931
| 58> H  -22.753   24.363   46.929
| 59> H  -24.729   25.236   47.931
| 60> H  -25.737   23.897   47.329
| 61> H  -25.688   22.931   44.966
| 62> *
| 63> 
| 64>                          ****END OF INPUT****
================================================================================

                       *****************************
                       * Geometry Optimization Run *
                       *****************************

Geometry optimization settings:
Update method            Update   .... BFGS
Choice of coordinates    CoordSys .... Z-matrix Internals
Initial Hessian          InHess   .... Almoef's Model

Convergence Tolerances:
Energy Change            TolE     ....  5.0000e-06 Eh
Max. Gradient            TolMAXG  ....  3.0000e-04 Eh/bohr
RMS Gradient             TolRMSG  ....  1.0000e-04 Eh/bohr
Max. Displacement        TolMAXD  ....  4.0000e-03 bohr
RMS Displacement         TolRMSD  ....  2.0000e-03 bohr
Strict Convergence                ....  False
------------------------------------------------------------------------------
                        ORCA OPTIMIZATION COORDINATE SETUP
------------------------------------------------------------------------------

The optimization will be done in new redundant internal coordinates
Making redundant internal coordinates   ...  (new redundants) done
Evaluating the initial hessian          ...  (Almloef) done
Evaluating the coordinates              ...  done
Calculating the B-matrix                .... done
Calculating the G-matrix                .... done
Diagonalizing the G-matrix              .... done
Imposing constraints:
 Iter   0:  RMS(Cart)=    0.0001185956 RMS(Int)=    0.0000399550
 Iter   1:  RMS(Cart)=    0.0000593219 RMS(Int)=    0.0000216835
 Iter   2:  RMS(Cart)=    0.0000310066 RMS(Int)=    0.0000129153
 Iter   3:  RMS(Cart)=    0.0000170983 RMS(Int)=    0.0000084401
 Iter   4:  RMS(Cart)=    0.0000099941 RMS(Int)=    0.0000059858
 Iter   5:  RMS(Cart)=    0.0000061799 RMS(Int)=    0.0000045663
 Iter   6:  RMS(Cart)=    0.0000040164 RMS(Int)=    0.0000037252
 Iter   7:  RMS(Cart)=    0.0000027242 RMS(Int)=    0.0000032219
 Iter   8:  RMS(Cart)=    0.0000019195 RMS(Int)=    0.0000029144
 Iter   9:  RMS(Cart)=    0.0000014036 RMS(Int)=    0.0000027173
 Iter  10:  RMS(Cart)=    0.0000010668 RMS(Int)=    0.0000025806
 Iter  11:  RMS(Cart)=    0.0000008449 RMS(Int)=    0.0000024768
 Iter  12:  RMS(Cart)=    0.0000006977 RMS(Int)=    0.0000023911
 Iter  13:  RMS(Cart)=    0.0000005991 RMS(Int)=    0.0000023156
 Iter  14:  RMS(Cart)=    0.0000005319 RMS(Int)=    0.0000022463
 Iter  15:  RMS(Cart)=    0.0000004847 RMS(Int)=    0.0000021812
 Iter  16:  RMS(Cart)=    0.0000004504 RMS(Int)=    0.0000021191
 Iter  17:  RMS(Cart)=    0.0000004242 RMS(Int)=    0.0000020594
 Iter  18:  RMS(Cart)=    0.0000004033 RMS(Int)=    0.0000020018
 Iter  19:  RMS(Cart)=    0.0000003860 RMS(Int)=    0.0000019462
 Iter  20:  RMS(Cart)=    0.0000003711 RMS(Int)=    0.0000018924
 Iter  21:  RMS(Cart)=    0.0000003578 RMS(Int)=    0.0000018403
 Iter  22:  RMS(Cart)=    0.0000003458 RMS(Int)=    0.0000017898
 Iter  23:  RMS(Cart)=    0.0000003348 RMS(Int)=    0.0000017408
 Iter  24:  RMS(Cart)=    0.0000003244 RMS(Int)=    0.0000016934
 Iter  25:  RMS(Cart)=    0.0000003146 RMS(Int)=    0.0000016474
 Iter  26:  RMS(Cart)=    0.0000003054 RMS(Int)=    0.0000016028
 Iter  27:  RMS(Cart)=    0.0000002965 RMS(Int)=    0.0000015596
 Iter  28:  RMS(Cart)=    0.0000002879 RMS(Int)=    0.0000015177
 Iter  29:  RMS(Cart)=    0.0000002797 RMS(Int)=    0.0000014771
 Iter  30:  RMS(Cart)=    0.0000002718 RMS(Int)=    0.0000014377
 Iter  31:  RMS(Cart)=    0.0000002642 RMS(Int)=    0.0000013994
 Iter  32:  RMS(Cart)=    0.0000002568 RMS(Int)=    0.0000013624
 Iter  33:  RMS(Cart)=    0.0000002497 RMS(Int)=    0.0000013264
 Iter  34:  RMS(Cart)=    0.0000002427 RMS(Int)=    0.0000012916
 Iter  35:  RMS(Cart)=    0.0000002360 RMS(Int)=    0.0000012577
 Iter  36:  RMS(Cart)=    0.0000002296 RMS(Int)=    0.0000012249
 Iter  37:  RMS(Cart)=    0.0000002233 RMS(Int)=    0.0000011931
 Iter  38:  RMS(Cart)=    0.0000002172 RMS(Int)=    0.0000011621
 Iter  39:  RMS(Cart)=    0.0000002112 RMS(Int)=    0.0000011322
 Iter  40:  RMS(Cart)=    0.0000002055 RMS(Int)=    0.0000011031
 Iter  41:  RMS(Cart)=    0.0000001999 RMS(Int)=    0.0000010748
 Iter  42:  RMS(Cart)=    0.0000001945 RMS(Int)=    0.0000010474
 Iter  43:  RMS(Cart)=    0.0000001893 RMS(Int)=    0.0000010208
 Iter  44:  RMS(Cart)=    0.0000001842 RMS(Int)=    0.0000009949
 Iter  45:  RMS(Cart)=    0.0000001793 RMS(Int)=    0.0000009699
 Iter  46:  RMS(Cart)=    0.0000001745 RMS(Int)=    0.0000009455
 Iter  47:  RMS(Cart)=    0.0000001698 RMS(Int)=    0.0000009219
 Iter  48:  RMS(Cart)=    0.0000001653 RMS(Int)=    0.0000008989
 Iter  49:  RMS(Cart)=    0.0000001609 RMS(Int)=    0.0000008766
 Iter  50:  RMS(Cart)=    0.0000001567 RMS(Int)=    0.0000008549
 Iter  51:  RMS(Cart)=    0.0000001526 RMS(Int)=    0.0000008339
 Iter  52:  RMS(Cart)=    0.0000001486 RMS(Int)=    0.0000008135
 Iter  53:  RMS(Cart)=    0.0000001447 RMS(Int)=    0.0000007936
 Iter  54:  RMS(Cart)=    0.0000001409 RMS(Int)=    0.0000007743
 Iter  55:  RMS(Cart)=    0.0000001372 RMS(Int)=    0.0000007556
 Iter  56:  RMS(Cart)=    0.0000001337 RMS(Int)=    0.0000007374
 Iter  57:  RMS(Cart)=    0.0000001302 RMS(Int)=    0.0000007197
 Iter  58:  RMS(Cart)=    0.0000001268 RMS(Int)=    0.0000007025
 Iter  59:  RMS(Cart)=    0.0000001236 RMS(Int)=    0.0000006858
 Iter  60:  RMS(Cart)=    0.0000001204 RMS(Int)=    0.0000006696
 Iter  61:  RMS(Cart)=    0.0000001173 RMS(Int)=    0.0000006538
 Iter  62:  RMS(Cart)=    0.0000001143 RMS(Int)=    0.0000006385
 Iter  63:  RMS(Cart)=    0.0000001114 RMS(Int)=    0.0000006236
 Iter  64:  RMS(Cart)=    0.0000001086 RMS(Int)=    0.0000006091
 Iter  65:  RMS(Cart)=    0.0000001058 RMS(Int)=    0.0000005950
 Iter  66:  RMS(Cart)=    0.0000001032 RMS(Int)=    0.0000005813
 Iter  67:  RMS(Cart)=    0.0000001006 RMS(Int)=    0.0000005679
 Iter  68:  RMS(Cart)=    0.0000000980 RMS(Int)=    0.0000005550
 Iter  69:  RMS(Cart)=    0.0000000956 RMS(Int)=    0.0000005424
 Iter  70:  RMS(Cart)=    0.0000000932 RMS(Int)=    0.0000005301
 Iter  71:  RMS(Cart)=    0.0000000909 RMS(Int)=    0.0000005182
 Iter  72:  RMS(Cart)=    0.0000000886 RMS(Int)=    0.0000005066
 Iter  73:  RMS(Cart)=    0.0000000864 RMS(Int)=    0.0000004953
 Iter  74:  RMS(Cart)=    0.0000000843 RMS(Int)=    0.0000004843
 Iter  75:  RMS(Cart)=    0.0000000822 RMS(Int)=    0.0000004736
 Iter  76:  RMS(Cart)=    0.0000000802 RMS(Int)=    0.0000004633
 Iter  77:  RMS(Cart)=    0.0000000782 RMS(Int)=    0.0000004531
 Iter  78:  RMS(Cart)=    0.0000000763 RMS(Int)=    0.0000004433
 Iter  79:  RMS(Cart)=    0.0000000745 RMS(Int)=    0.0000004337
 Iter  80:  RMS(Cart)=    0.0000000727 RMS(Int)=    0.0000004244
 Iter  81:  RMS(Cart)=    0.0000000709 RMS(Int)=    0.0000004153
 Iter  82:  RMS(Cart)=    0.0000000692 RMS(Int)=    0.0000004065
 Iter  83:  RMS(Cart)=    0.0000000675 RMS(Int)=    0.0000003979
 Iter  84:  RMS(Cart)=    0.0000000659 RMS(Int)=    0.0000003895
 Iter  85:  RMS(Cart)=    0.0000000643 RMS(Int)=    0.0000003813
 Iter  86:  RMS(Cart)=    0.0000000628 RMS(Int)=    0.0000003734
 Iter  87:  RMS(Cart)=    0.0000000613 RMS(Int)=    0.0000003656
 Iter  88:  RMS(Cart)=    0.0000000599 RMS(Int)=    0.0000003581
 Iter  89:  RMS(Cart)=    0.0000000585 RMS(Int)=    0.0000003508
 Iter  90:  RMS(Cart)=    0.0000000571 RMS(Int)=    0.0000003436
 Iter  91:  RMS(Cart)=    0.0000000557 RMS(Int)=    0.0000003366
 Iter  92:  RMS(Cart)=    0.0000000544 RMS(Int)=    0.0000003299
 Iter  93:  RMS(Cart)=    0.0000000532 RMS(Int)=    0.0000003232
 Iter  94:  RMS(Cart)=    0.0000000519 RMS(Int)=    0.0000003168
 Iter  95:  RMS(Cart)=    0.0000000507 RMS(Int)=    0.0000003105
 Iter  96:  RMS(Cart)=    0.0000000496 RMS(Int)=    0.0000003044
 Iter  97:  RMS(Cart)=    0.0000000484 RMS(Int)=    0.0000002984
 Iter  98:  RMS(Cart)=    0.0000000473 RMS(Int)=    0.0000002926
 Iter  99:  RMS(Cart)=    0.0000000462 RMS(Int)=    0.0000002869
 RMS(Cart) too big - taking linear step, building new B-matrix and trying again
Imposing constraints:
 Iter   0:  RMS(Cart)=    0.0000593226 RMS(Int)=    0.0000216835
 Iter   1:  RMS(Cart)=    0.0000310068 RMS(Int)=    0.0000129153
 Iter   2:  RMS(Cart)=    0.0000170983 RMS(Int)=    0.0000084402
 Iter   3:  RMS(Cart)=    0.0000099940 RMS(Int)=    0.0000059860
 Iter   4:  RMS(Cart)=    0.0000061798 RMS(Int)=    0.0000045665
 Iter   5:  RMS(Cart)=    0.0000040164 RMS(Int)=    0.0000037256
 Iter   6:  RMS(Cart)=    0.0000027242 RMS(Int)=    0.0000032223
 Iter   7:  RMS(Cart)=    0.0000019196 RMS(Int)=    0.0000029148
 Iter   8:  RMS(Cart)=    0.0000014036 RMS(Int)=    0.0000027177
 Iter   9:  RMS(Cart)=    0.0000010668 RMS(Int)=    0.0000025810
 Iter  10:  RMS(Cart)=    0.0000008449 RMS(Int)=    0.0000024772
 Iter  11:  RMS(Cart)=    0.0000006977 RMS(Int)=    0.0000023915
 Iter  12:  RMS(Cart)=    0.0000005991 RMS(Int)=    0.0000023159
 Iter  13:  RMS(Cart)=    0.0000005319 RMS(Int)=    0.0000022467
 Iter  14:  RMS(Cart)=    0.0000004848 RMS(Int)=    0.0000021815
 Iter  15:  RMS(Cart)=    0.0000004504 RMS(Int)=    0.0000021194
 Iter  16:  RMS(Cart)=    0.0000004242 RMS(Int)=    0.0000020597
 Iter  17:  RMS(Cart)=    0.0000004034 RMS(Int)=    0.0000020022
 Iter  18:  RMS(Cart)=    0.0000003860 RMS(Int)=    0.0000019465
 Iter  19:  RMS(Cart)=    0.0000003711 RMS(Int)=    0.0000018927
 Iter  20:  RMS(Cart)=    0.0000003579 RMS(Int)=    0.0000018405
 Iter  21:  RMS(Cart)=    0.0000003459 RMS(Int)=    0.0000017900
 Iter  22:  RMS(Cart)=    0.0000003348 RMS(Int)=    0.0000017411
 Iter  23:  RMS(Cart)=    0.0000003245 RMS(Int)=    0.0000016936
 Iter  24:  RMS(Cart)=    0.0000003147 RMS(Int)=    0.0000016476
 Iter  25:  RMS(Cart)=    0.0000003054 RMS(Int)=    0.0000016031
 Iter  26:  RMS(Cart)=    0.0000002965 RMS(Int)=    0.0000015598
 Iter  27:  RMS(Cart)=    0.0000002880 RMS(Int)=    0.0000015179
 Iter  28:  RMS(Cart)=    0.0000002798 RMS(Int)=    0.0000014773
 Iter  29:  RMS(Cart)=    0.0000002719 RMS(Int)=    0.0000014379
 Iter  30:  RMS(Cart)=    0.0000002642 RMS(Int)=    0.0000013996
 Iter  31:  RMS(Cart)=    0.0000002568 RMS(Int)=    0.0000013626
 Iter  32:  RMS(Cart)=    0.0000002497 RMS(Int)=    0.0000013266
 Iter  33:  RMS(Cart)=    0.0000002428 RMS(Int)=    0.0000012917
 Iter  34:  RMS(Cart)=    0.0000002361 RMS(Int)=    0.0000012579
 Iter  35:  RMS(Cart)=    0.0000002296 RMS(Int)=    0.0000012251
 Iter  36:  RMS(Cart)=    0.0000002233 RMS(Int)=    0.0000011932
 Iter  37:  RMS(Cart)=    0.0000002172 RMS(Int)=    0.0000011623
 Iter  38:  RMS(Cart)=    0.0000002113 RMS(Int)=    0.0000011323
 Iter  39:  RMS(Cart)=    0.0000002055 RMS(Int)=    0.0000011032
 Iter  40:  RMS(Cart)=    0.0000002000 RMS(Int)=    0.0000010749
 Iter  41:  RMS(Cart)=    0.0000001945 RMS(Int)=    0.0000010475
 Iter  42:  RMS(Cart)=    0.0000001893 RMS(Int)=    0.0000010209
 Iter  43:  RMS(Cart)=    0.0000001842 RMS(Int)=    0.0000009951
CONVERGED
Small eigenvalue found = 6.129e-03
Small eigenvalue found = 1.183e-02
Small eigenvalue found = 1.685e-02
The first mode is                       ....   91
The number of degrees of freedom        ....   81
Storing new coordinates                 .... done

    -----------------------------------------------------------------
                    Redundant Internal Coordinates


    -----------------------------------------------------------------
         Definition                    Initial Value    Approx d2E/dq
    -----------------------------------------------------------------
      1. B(C   1,C   0)                  1.5333         0.369027   
      2. B(C   2,C   1)                  1.5471         0.350825   
      3. B(C   3,C   2)                  1.5492         0.348147   
      4. B(O   4,C   0)                  1.4668         0.422031   
      5. B(O   4,C   3)                  1.4789         0.403699   
      6. B(H   5,C   0)                  1.0919         0.357632   
      7. B(H   6,C   1)                  1.0958         0.352561   
      8. B(H   7,C   1)                  1.0951         0.353431   
      9. B(H   8,C   2)                  1.0945         0.354166   
     10. B(H   9,C   2)                  1.0966         0.351438   
     11. B(H  10,C   3)                  1.0954         0.353010   
     12. B(H  11,C   3)                  1.0939         0.354989   
     13. B(H  13,C  12)                  1.0977         0.350059   
     14. B(H  14,C  12)                  1.0975         0.350356   
     15. B(O  15,C   0)                  1.5525         0.307993   
     16. B(O  15,C  12)                  1.5538         0.306623   
     17. B(C  16,C  12)                  1.5535         0.342658   
     18. B(C  17,C  16)                  1.5335         0.368843   
     19. B(C  18,C  17)                  1.5475         0.350332   
     20. B(C  19,C  18)                  1.5492         0.348098   
     21. B(O  20,C  16)                  1.4665         0.422551   
     22. B(O  20,C  19)                  1.4791         0.403419   
     23. B(H  21,C  16)                  1.0910         0.358815   
     24. B(O  22,C  17)                  1.5524         0.308128   
     25. B(H  23,C  17)                  1.0951         0.353454   
     26. B(H  24,C  18)                  1.0945         0.354184   
     27. B(H  25,C  18)                  1.0971         0.350854   
     28. B(H  26,C  19)                  1.0947         0.353985   
     29. B(H  27,C  19)                  1.0946         0.354007   
     30. B(H  28,O  22)                  1.0953         0.316311   
     31. A(O   4,C   0,H   5)          107.0215         0.328541   
     32. A(C   1,C   0,O  15)          111.3021         0.348740   
     33. A(C   1,C   0,O   4)          104.2485         0.367935   
     34. A(O   4,C   0,O  15)          110.4735         0.354548   
     35. A(C   1,C   0,H   5)          114.4377         0.323302   
     36. A(H   5,C   0,O  15)          109.1576         0.312058   
     37. A(C   0,C   1,C   2)          101.6797         0.358729   
     38. A(C   2,C   1,H   7)          112.8319         0.320016   
     39. A(C   2,C   1,H   6)          110.6708         0.319888   
     40. A(C   0,C   1,H   6)          110.0677         0.322546   
     41. A(H   6,C   1,H   7)          108.3681         0.289027   
     42. A(C   0,C   1,H   7)          113.1243         0.322677   
     43. A(C   1,C   2,H   8)          112.8318         0.320125   
     44. A(C   1,C   2,C   3)          103.1267         0.355196   
     45. A(C   1,C   2,H   9)          110.0800         0.319721   
     46. A(C   3,C   2,H   9)          110.6152         0.319321   
     47. A(C   3,C   2,H   8)          112.4038         0.319725   
     48. A(H   8,C   2,H   9)          107.7728         0.288977   
     49. A(O   4,C   3,H  10)          109.1298         0.325449   
     50. A(C   2,C   3,H  10)          112.5253         0.319554   
     51. A(C   2,C   3,O   4)          106.5275         0.361529   
     52. A(O   4,C   3,H  11)          107.1237         0.325748   
     53. A(H  10,C   3,H  11)          108.8728         0.289284   
     54. A(C   2,C   3,H  11)          112.4566         0.319846   
     55. A(C   0,O   4,C   3)          108.3147         0.371320   
     56. A(H  14,C  12,C  16)          107.7450         0.318334   
     57. A(H  13,C  12,H  14)          108.2179         0.288310   
     58. A(H  13,C  12,O  15)          109.2511         0.310756   
     59. A(H  14,C  12,O  15)          110.4399         0.310798   
     60. A(O  15,C  12,C  16)          112.7406         0.344161   
     61. A(H  13,C  12,C  16)          108.3222         0.318290   
     62. A(C   0,O  15,C  12)          115.1654         0.336025   
     63. A(C  12,C  16,C  17)          111.2923         0.357264   
     64. A(C  12,C  16,O  20)          110.4706         0.363370   
     65. A(C  17,C  16,O  20)          104.2661         0.367981   
     66. A(C  12,C  16,H  21)          109.1301         0.319576   
     67. A(C  17,C  16,H  21)          114.4208         0.323451   
     68. A(O  20,C  16,H  21)          107.0660         0.328787   
     69. A(C  16,C  17,C  18)          101.6811         0.358612   
     70. A(C  16,C  17,O  22)          110.0608         0.348737   
     71. A(C  18,C  17,O  22)          110.6467         0.345727   
     72. A(C  16,C  17,H  23)          113.1859         0.322654   
     73. A(C  18,C  17,H  23)          112.7564         0.319946   
     74. A(O  22,C  17,H  23)          108.4076         0.311487   
     75. A(C  17,C  18,C  19)          103.1332         0.355103   
     76. A(C  17,C  18,H  24)          112.9096         0.320054   
     77. A(C  19,C  18,H  24)          112.4247         0.319720   
     78. A(C  17,C  18,H  25)          110.0945         0.319561   
     79. A(C  19,C  18,H  25)          110.5499         0.319227   
     80. A(H  24,C  18,H  25)          107.7198         0.288904   
     81. A(C  18,C  19,O  20)          106.5331         0.361477   
     82. A(C  18,C  19,H  26)          112.5810         0.319691   
     83. A(O  20,C  19,H  26)          109.1456         0.325559   
     84. A(C  18,C  19,H  27)          112.4324         0.319694   
     85. A(O  20,C  19,H  27)          107.0760         0.325562   
     86. A(H  26,C  19,H  27)          108.8640         0.289283   
     87. A(C  16,O  20,C  19)          108.3172         0.371355   
     88. A(C  17,O  22,H  28)          109.6949         0.303437   
     89. D(H   7,C   1,C   0,H   5)     82.1518         0.010890   
     90. D(C   2,C   1,C   0,O  15)     79.0868         0.010890   
     91. D(H   7,C   1,C   0,O  15)    -42.1868         0.010890   
     92. D(H   6,C   1,C   0,O   4)     77.3259         0.010890   
     93. D(H   6,C   1,C   0,O  15)   -163.5727         0.010890   
     94. D(H   6,C   1,C   0,H   5)    -39.2341         0.010890   
     95. D(H   7,C   1,C   0,O   4)   -161.2882         0.010890   
     96. D(C   2,C   1,C   0,O   4)    -40.0145         0.010890 C 
     97. D(C   2,C   1,C   0,H   5)   -156.5746         0.010890   
     98. D(H   9,C   2,C   1,H   6)    160.0776         0.009912   
     99. D(H   8,C   2,C   1,C   0)    156.5479         0.009912   
    100. D(H   8,C   2,C   1,H   6)     39.6446         0.009912   
    101. D(C   3,C   2,C   1,C   0)     35.0270         0.009912 C 
    102. D(H   8,C   2,C   1,H   7)    -81.9752         0.009912   
    103. D(H   9,C   2,C   1,C   0)    -83.0191         0.009912   
    104. D(C   3,C   2,C   1,H   6)    -81.8763         0.009912   
    105. D(H   9,C   2,C   1,H   7)     38.4578         0.009912   
    106. D(C   3,C   2,C   1,H   7)    156.5039         0.009912   
    107. D(H  11,C   3,C   2,H   9)   -143.4628         0.009774   
    108. D(O   4,C   3,C   2,H   8)   -140.0066         0.009774   
    109. D(O   4,C   3,C   2,H   9)     99.4739         0.009774   
    110. D(H  10,C   3,C   2,C   1)   -137.7432         0.009774   
    111. D(H  10,C   3,C   2,H   8)    100.4468         0.009774   
    112. D(H  10,C   3,C   2,H   9)    -20.0727         0.009774   
    113. D(H  11,C   3,C   2,C   1)     98.8667         0.009774   
    114. D(O   4,C   3,C   2,C   1)    -18.1967         0.009774 C 
    115. D(H  11,C   3,C   2,H   8)    -22.9433         0.009774   
    116. D(C   3,O   4,C   0,C   1)     29.5918         0.014035 C 
    117. D(C   3,O   4,C   0,H   5)    151.2015         0.014035   
    118. D(C   3,O   4,C   0,O  15)    -90.0712         0.014035   
    119. D(C   0,O   4,C   3,C   2)     -6.8732         0.012866 C 
    120. D(C   0,O   4,C   3,H  10)    114.8547         0.012866   
    121. D(C   0,O   4,C   3,H  11)   -127.4272         0.012866   
    122. D(C   0,O  15,C  12,C  16)    120.0000         0.007733 C 
    123. D(C  12,O  15,C   0,O   4)   -165.0000         0.007793 C 
    124. D(C  12,O  15,C   0,H   5)    -47.5810         0.007793   
    125. D(C   0,O  15,C  12,H  14)     -0.5897         0.007733   
    126. D(C   0,O  15,C  12,H  13)   -119.5075         0.007733   
    127. D(C  12,O  15,C   0,C   1)     79.6865         0.007793   
    128. D(C  17,C  16,C  12,H  13)   -176.3791         0.009494   
    129. D(H  21,C  16,C  12,H  14)    -60.4527         0.009494   
    130. D(C  17,C  16,C  12,O  15)    -55.3557         0.009494   
    131. D(O  20,C  16,C  12,H  13)    -61.0517         0.009494   
    132. D(O  20,C  16,C  12,H  14)   -177.9075         0.009494   
    133. D(O  20,C  16,C  12,O  15)     59.9718         0.009494 C 
    134. D(C  17,C  16,C  12,H  14)     66.7650         0.009494   
    135. D(H  21,C  16,C  12,H  13)     56.4032         0.009494   
    136. D(H  21,C  16,C  12,O  15)    177.4267         0.009494   
    137. D(C  18,C  17,C  16,C  12)     79.1181         0.010880   
    138. D(C  18,C  17,C  16,O  20)    -39.9853         0.010880 C 
    139. D(C  18,C  17,C  16,H  21)   -156.6017         0.010880   
    140. D(O  22,C  17,C  16,C  12)   -163.5712         0.010880   
    141. D(O  22,C  17,C  16,O  20)     77.3254         0.010880   
    142. D(O  22,C  17,C  16,H  21)    -39.2909         0.010880   
    143. D(H  23,C  17,C  16,C  12)    -42.0969         0.010880   
    144. D(H  23,C  17,C  16,O  20)   -161.2003         0.010880   
    145. D(H  23,C  17,C  16,H  21)     82.1833         0.010880   
    146. D(H  24,C  18,C  17,H  23)    -81.9378         0.009887   
    147. D(C  19,C  18,C  17,O  22)    -81.9292         0.009887   
    148. D(C  19,C  18,C  17,H  23)    156.4705         0.009887   
    149. D(H  24,C  18,C  17,C  16)    156.5485         0.009887   
    150. D(C  19,C  18,C  17,C  16)     34.9567         0.009887 C 
    151. D(H  24,C  18,C  17,O  22)     39.6625         0.009887   
    152. D(H  25,C  18,C  17,C  16)    -83.0238         0.009887   
    153. D(H  25,C  18,C  17,O  22)    160.0903         0.009887   
    154. D(H  25,C  18,C  17,H  23)     38.4899         0.009887   
    155. D(H  27,C  19,C  18,H  25)   -143.4638         0.009771   
    156. D(O  20,C  19,C  18,H  24)   -140.0394         0.009771   
    157. D(O  20,C  19,C  18,H  25)     99.5404         0.009771   
    158. D(H  26,C  19,C  18,C  17)   -137.7221         0.009771   
    159. D(H  26,C  19,C  18,H  24)    100.3590         0.009771   
    160. D(H  26,C  19,C  18,H  25)    -20.0612         0.009771   
    161. D(H  27,C  19,C  18,C  17)     98.8753         0.009771   
    162. D(O  20,C  19,C  18,C  17)    -18.1205         0.009771 C 
    163. D(H  27,C  19,C  18,H  24)    -23.0436         0.009771   
    164. D(C  19,O  20,C  16,C  12)    -90.0460         0.014069   
    165. D(C  19,O  20,C  16,C  17)     29.6142         0.014069 C 
    166. D(C  19,O  20,C  16,H  21)    151.2350         0.014069   
    167. D(C  16,O  20,C  19,C  18)     -6.9322         0.012848 C 
    168. D(C  16,O  20,C  19,H  26)    114.8746         0.012848   
    169. D(C  16,O  20,C  19,H  27)   -127.4357         0.012848   
    170. D(H  28,O  22,C  17,C  16)    -55.8044         0.007799   
    171. D(H  28,O  22,C  17,C  18)     55.7839         0.007799   
    172. D(H  28,O  22,C  17,H  23)    179.9127         0.007799   
    -----------------------------------------------------------------

Number of atoms                         .... 29
Number of degrees of freedom            .... 172

Time needed for optimization step       :     4.17 sec

         *************************************************************
         *                GEOMETRY OPTIMIZATION CYCLE   1            *
         *************************************************************
---------------------------------
CARTESIAN COORDINATES (ANGSTROEM)
---------------------------------
  C    -21.048155   26.221886   46.251150
  C    -20.361008   27.557772   45.943953
  C    -20.328921   28.221983   47.340854
  C    -20.110042   27.022096   48.296021
  O    -20.473182   25.807029   47.535206
  H    -20.833247   25.427776   45.533244
  H    -19.344032   27.381604   45.575966
  H    -20.897952   28.156724   45.200874
  H    -19.542837   28.977911   47.433735
  H    -21.288864   28.710120   47.547793
  H    -20.733025   27.082293   49.195020
  H    -19.064050   26.913025   48.597024
  C    -23.353120   26.472157   45.026140
  H    -23.872087   27.437178   44.960180
  H    -22.654138   26.400158   44.183125
  O    -22.586130   26.394112   46.375143
  C    -24.405027   25.340084   44.867041
  C    -23.764906   23.957127   45.037963
  C    -23.656918   23.850032   46.577958
  C    -24.926991   24.586886   47.071984
  O    -25.402046   25.411917   45.940033
  H    -24.938018   25.477094   43.925037
  O    -24.709800   22.860082   44.477873
  H    -22.794889   23.866248   44.537973
  H    -23.610831   22.815013   46.930890
  H    -22.752969   24.363089   46.929007
  H    -24.729065   25.235847   47.931030
  H    -25.736934   23.896796   47.328924
  H    -25.687814   22.930962   44.965862

----------------------------
CARTESIAN COORDINATES (A.U.)
----------------------------
  NO LB      ZA    FRAG     MASS         X           Y           Z
   0 C     6.0000    0    12.011  -39.775249   49.552182   87.402007
   1 C     6.0000    0    12.011  -38.476729   52.076641   86.821489
   2 C     6.0000    0    12.011  -38.416093   53.331819   89.461250
   3 C     6.0000    0    12.011  -38.002472   51.064361   91.266253
   4 O     8.0000    0    15.999  -38.688707   48.768218   89.828520
   5 H     1.0000    0     1.008  -39.369132   48.051532   86.045361
   6 H     1.0000    0     1.008  -36.554923   51.743733   86.126093
   7 H     1.0000    0     1.008  -39.491405   53.208497   85.417273
   8 H     1.0000    0     1.008  -36.930611   54.760316   89.636768
   9 H     1.0000    0     1.008  -40.230123   54.254264   89.852307
  10 H     1.0000    0     1.008  -39.179739   51.178116   92.965115
  11 H     1.0000    0     1.008  -36.025834   50.858246   91.835066
  12 C     6.0000    0    12.011  -44.131002   50.025127   85.087073
  13 H     1.0000    0     1.008  -45.111707   51.848752   84.962426
  14 H     1.0000    0     1.008  -42.810117   49.889069   83.494006
  15 O     8.0000    0    15.999  -42.681601   49.877644   87.636320
  16 C     6.0000    0    12.011  -46.118817   47.885820   84.786419
  17 C     6.0000    0    12.011  -44.909164   45.272410   85.109415
  18 C     6.0000    0    12.011  -44.705095   45.070029   88.019585
  19 C     6.0000    0    12.011  -47.105187   46.462481   88.953158
  20 O     8.0000    0    15.999  -48.002910   48.021564   86.814081
  21 H     1.0000    0     1.008  -47.126024   48.144730   83.006290
  22 O     8.0000    0    15.999  -46.694754   43.199294   84.050999
  23 H     1.0000    0     1.008  -43.076098   45.100672   84.164572
  24 H     1.0000    0     1.008  -44.618004   43.114126   88.686529
  25 H     1.0000    0     1.008  -42.996880   46.039566   88.682971
  26 H     1.0000    0     1.008  -46.731160   47.688839   90.576520
  27 H     1.0000    0     1.008  -48.635757   45.158400   89.438704
  28 H     1.0000    0     1.008  -48.542934   43.333239   84.973164

--------------------------------
INTERNAL COORDINATES (ANGSTROEM)
--------------------------------
 C      0   0   0     0.000000000000     0.00000000     0.00000000
 C      1   0   0     1.533334275362     0.00000000     0.00000000
 C      2   1   0     1.547103422529   101.67907390     0.00000000
 C      3   2   1     1.549188819996   103.12737509    35.02687180
 O      1   2   3     1.466801281701   104.24948604   319.98542309
 H      1   2   3     1.091872245274   114.43876658   203.42640133
 H      2   1   3     1.095759553917   110.06782188   117.34000099
 H      2   1   3     1.095088580892   113.12442239   238.72597460
 H      3   2   1     1.094523183857   112.83161078   156.54780790
 H      3   2   1     1.096628013503   110.07982737   276.98070077
 H      4   3   2     1.095413164062   112.52534669   222.25678475
 H      4   3   2     1.093891219455   112.45670684    98.86663270
 C      1   2   3     2.622241407651   102.54679183   111.80818423
 H     13   1   2     1.097698501411   121.83723227   325.17823587
 H     13   1   2     1.097467083789    78.03690324    69.33654850
 O      1   2   3     1.552547583812   111.30349807    79.08752829
 C     13   1   2     1.553515046596   125.00105693   172.75698284
 C     17  13   1     1.533469921453   111.29290127   339.14712053
 C     18  17  13     1.547486025785   101.68081827    79.11839873
 C     19  18  17     1.549227226717   103.13350741    34.95668921
 O     17  13   1     1.466465819581   110.47043267    94.47539127
 H     17  13   1     1.090972960252   109.12959122   211.92905983
 O     18  17  13     1.552428420250   110.06089407   196.42893365
 H     18  17  13     1.095071230560   113.18599049   317.90325563
 H     19  18  17     1.094509022347   112.90951896   156.54843079
 H     19  18  17     1.097080671601   110.09439713   276.97617138
 H     20  19  18     1.094662505067   112.58096733   222.27786734
 H     20  19  18     1.094645604751   112.43245344    98.87527792
 H     23  18  17     1.095294024452   109.69491161   304.19575949

---------------------------
INTERNAL COORDINATES (A.U.)
---------------------------
 C      0   0   0     0.000000000000     0.00000000     0.00000000
 C      1   0   0     2.897581852189     0.00000000     0.00000000
 C      2   1   0     2.923601769431   101.67907390     0.00000000
 C      3   2   1     2.927542599525   103.12737509    35.02687180
 O      1   2   3     2.771852715300   104.24948604   319.98542309
 H      1   2   3     2.063339516798   114.43876658   203.42640133
 H      2   1   3     2.070685465531   110.06782188   117.34000099
 H      2   1   3     2.069417510270   113.12442239   238.72597460
 H      3   2   1     2.068349064717   112.83161078   156.54780790
 H      3   2   1     2.072326616307   110.07982737   276.98070077
 H      4   3   2     2.070030883569   112.52534669   222.25678475
 H      4   3   2     2.067154825070   112.45670684    98.86663270
 C      1   2   3     4.955318117489   102.54679183   111.80818423
 H     13   1   2     2.074349545283   121.83723227   325.17823587
 H     13   1   2     2.073912229354    78.03690324    69.33654850
 O      1   2   3     2.933889743286   111.30349807    79.08752829
 C     13   1   2     2.935717982992   125.00105693   172.75698284
 C     17  13   1     2.897838186151   111.29290127   339.14712053
 C     18  17  13     2.924324784804   101.68081827    79.11839873
 C     19  18  17     2.927615177709   103.13350741    34.95668921
 O     17  13   1     2.771218783765   110.47043267    94.47539127
 H     17  13   1     2.061640114389   109.12959122   211.92905983
 O     18  17  13     2.933664556789   110.06089407   196.42893365
 H     18  17  13     2.069384722894   113.18599049   317.90325563
 H     19  18  17     2.068322303343   112.90951896   156.54843079
 H     19  18  17     2.073182016144   110.09439713   276.97617138
 H     20  19  18     2.068612343649   112.58096733   222.27786734
 H     20  19  18     2.068580406679   112.43245344    98.87527792
 H     23  18  17     2.069805742335   109.69491161   304.19575949

---------------------
BASIS SET INFORMATION
---------------------
There are 3 groups of distinct atoms

 Group   1 Type C   : 10s4p contracted to 3s2p pattern {631/31}
 Group   2 Type O   : 10s4p contracted to 3s2p pattern {631/31}
 Group   3 Type H   : 4s contracted to 2s pattern {31}

Atom   0C    basis set group =>   1
Atom   1C    basis set group =>   1
Atom   2C    basis set group =>   1
Atom   3C    basis set group =>   1
Atom   4O    basis set group =>   2
Atom   5H    basis set group =>   3
Atom   6H    basis set group =>   3
Atom   7H    basis set group =>   3
Atom   8H    basis set group =>   3
Atom   9H    basis set group =>   3
Atom  10H    basis set group =>   3
Atom  11H    basis set group =>   3
Atom  12C    basis set group =>   1
Atom  13H    basis set group =>   3
Atom  14H    basis set group =>   3
Atom  15O    basis set group =>   2
Atom  16C    basis set group =>   1
Atom  17C    basis set group =>   1
Atom  18C    basis set group =>   1
Atom  19C    basis set group =>   1
Atom  20O    basis set group =>   2
Atom  21H    basis set group =>   3
Atom  22O    basis set group =>   2
Atom  23H    basis set group =>   3
Atom  24H    basis set group =>   3
Atom  25H    basis set group =>   3
Atom  26H    basis set group =>   3
Atom  27H    basis set group =>   3
Atom  28H    basis set group =>   3
------------------------------------------------------------------------------
                           ORCA GTO INTEGRAL CALCULATION
------------------------------------------------------------------------------

                         BASIS SET STATISTICS AND STARTUP INFO

 # of primitive gaussian shells          ...  246
 # of primitive gaussian functions       ...  350
 # of contracted shells                  ...   97
 # of contracted basis functions         ...  149
 Highest angular momentum                ...    1
 Maximum contraction depth               ...    6
 Integral package used                   ... LIBINT
 Integral threshhold            Thresh   ...  2.500e-11
 Primitive cut-off              TCut     ...  2.500e-12


------------------------------ INTEGRAL EVALUATION ----------------------------


 * One electron integrals 
 Pre-screening matrix                    ... done
 Shell pair data                         ... done (   0.002 sec)

-------------------------------------------------------------------------------
                                 ORCA SCF
-------------------------------------------------------------------------------

------------
SCF SETTINGS
------------
Hamiltonian:
 Density Functional     Method          .... DFT(GTOs)
 Exchange Functional    Exchange        .... B88
   X-Alpha parameter    XAlpha          ....  0.666667
   Becke's b parameter  XBeta           ....  0.004200
 Correlation Functional Correlation     .... LYP
 LDA part of GGA corr.  LDAOpt          .... VWN-5
 Gradients option       PostSCFGGA      .... off
 Hybrid DFT is turned on
   Fraction HF Exchange ScalHFX         ....  0.200000
   Scaling of DF-GGA-X  ScalDFX         ....  0.720000
   Scaling of DF-GGA-C  ScalDFC         ....  0.810000
   Scaling of DF-LDA-C  ScalLDAC        ....  1.000000
   Perturbative correction              ....  0.000000
   Density functional embedding theory  .... OFF
   NL short-range parameter             ....  4.800000


General Settings:
 Integral files         IntName         .... project_8048/ensemble_195_120
 Hartree-Fock type      HFTyp           .... RHF
 Total Charge           Charge          ....    0
 Multiplicity           Mult            ....    1
 Number of Electrons    NEL             ....  102
 Basis Dimension        Dim             ....  149
 Nuclear Repulsion      ENuc            ....    879.4157164132 Eh

Convergence Acceleration:
 DIIS                   CNVDIIS         .... on
   Start iteration      DIISMaxIt       ....    12
   Startup error        DIISStart       ....  0.200000
   # of expansion vecs  DIISMaxEq       ....     5
   Bias factor          DIISBfac        ....   1.050
   Max. coefficient     DIISMaxC        ....  10.000
 Newton-Raphson         CNVNR           .... off
 SOSCF                  CNVSOSCF        .... on
   Start iteration      SOSCFMaxIt      ....   150
   Startup grad/error   SOSCFStart      ....  0.003300
 Level Shifting         CNVShift        .... on
   Level shift para.    LevelShift      ....    0.2500
   Turn off err/grad.   ShiftErr        ....    0.0010
 Zerner damping         CNVZerner       .... off
 Static damping         CNVDamp         .... on
   Fraction old density DampFac         ....    0.7000
   Max. Damping (<1)    DampMax         ....    0.9800
   Min. Damping (>=0)   DampMin         ....    0.0000
   Turn off err/grad.   DampErr         ....    0.1000
 Fernandez-Rico         CNVRico         .... off

SCF Procedure:
 Maximum # iterations   MaxIter         ....   125
 SCF integral mode      SCFMode         .... Direct
   Integral package                     .... LIBINT
 Reset frequency        DirectResetFreq ....    20
 Integral Threshold     Thresh          ....  2.500e-11 Eh
 Primitive CutOff       TCut            ....  2.500e-12 Eh

Convergence Tolerance:
 Convergence Check Mode ConvCheckMode   .... Total+1el-Energy
 Convergence forced     ConvForced      .... 0
 Energy Change          TolE            ....  1.000e-08 Eh
 1-El. energy change                    ....  1.000e-05 Eh
 Orbital Gradient       TolG            ....  1.000e-05
 Orbital Rotation angle TolX            ....  1.000e-05
 DIIS Error             TolErr          ....  5.000e-07


Diagonalization of the overlap matrix:
Smallest eigenvalue                        ... 4.311e-03
Time for diagonalization                   ...    0.006 sec
Threshold for overlap eigenvalues          ... 1.000e-08
Number of eigenvalues below threshold      ... 0
Time for construction of square roots      ...    5.774 sec
Total time needed                          ...    5.781 sec

-------------------
DFT GRID GENERATION
-------------------

General Integration Accuracy     IntAcc      ...  4.340
Radial Grid Type                 RadialGrid  ... Gauss-Chebyshev
Angular Grid (max. acc.)         AngularGrid ... Lebedev-110
Angular grid pruning method      GridPruning ... 3 (G Style)
Weight generation scheme         WeightScheme... Becke
Basis function cutoff            BFCut       ...    1.0000e-11
Integration weight cutoff        WCut        ...    1.0000e-14
Grids for H and He will be reduced by one unit

# of grid points (after initial pruning)     ...  34472 (   0.0 sec)
# of grid points (after weights+screening)   ...  30951 (   0.3 sec)
nearest neighbour list constructed           ...    0.0 sec
Grid point re-assignment to atoms done       ...    0.0 sec
Grid point division into batches done        ...    0.0 sec
Reduced shell lists constructed in    0.3 sec

Total number of grid points                  ...    30951
Total number of batches                      ...      498
Average number of points per batch           ...       62
Average number of grid points per atom       ...     1067
Average number of shells per batch           ...    60.36 (62.23%)
Average number of basis functions per batch  ...    97.85 (65.67%)
Average number of large shells per batch     ...    42.42 (70.29%)
Average number of large basis fcns per batch ...    70.35 (71.90%)
Maximum spatial batch extension              ...  19.44, 20.09, 19.49 au
Average spatial batch extension              ...   3.22,  3.41,  3.23 au

Time for grid setup =   12.268 sec

------------------------------
INITIAL GUESS: MODEL POTENTIAL
------------------------------
Loading Hartree-Fock densities                     ... done
Calculating cut-offs                               ... done
Setting up the integral package                    ... done
Initializing the effective Hamiltonian             ... done
Starting the Coulomb interaction                   ... done (   0.4 sec)
Reading the grid                                   ... done
Mapping shells                                     ... done
Starting the XC term evaluation                    ... done (   0.4 sec)
  promolecular density results
     # of electrons  =    101.983275847
     EX              =    -83.663336690
     EC              =     -3.459608739
     EX+EC           =    -87.122945429
Transforming the Hamiltonian                       ... done (   4.0 sec)
Diagonalizing the Hamiltonian                      ... done (   0.0 sec)
Back transforming the eigenvectors                 ... done (   0.0 sec)
Now organizing SCF variables                       ... done
                      ------------------
                      INITIAL GUESS DONE (  35.1 sec)
                      ------------------
--------------
SCF ITERATIONS
--------------
ITER       Energy         Delta-E        Max-DP      RMS-DP      [F,P]     Damp
               ***  Starting incremental Fock matrix formation  ***
  0   -652.5303225369   0.000000000000 0.07367523  0.00306054  0.2377994 0.7000
  1   -652.6726922966  -0.142369759756 0.04301046  0.00208984  0.1051174 0.7000
                               ***Turning on DIIS***
  2   -652.7257314024  -0.053039105803 0.06012813  0.00331243  0.0301902 0.0000
  3   -652.8134374992  -0.087706096769 0.02971375  0.00140999  0.0535482 0.0000
  4   -652.8311618976  -0.017724398350 0.00925481  0.00042922  0.0094998 0.0000
  5   -652.8321616212  -0.000999723604 0.00312622  0.00012995  0.0044333 0.0000
                      *** Initiating the SOSCF procedure ***
                           *** Shutting down DIIS ***
                      *** Re-Reading the Fockian *** 
                      *** Removing any level shift *** 
ITER      Energy       Delta-E        Grad      Rot      Max-DP    RMS-DP
  6   -652.83223647  -0.0000748504  0.000217  0.000217  0.001189  0.000057
               *** Restarting incremental Fock matrix formation ***
  7   -652.83223925  -0.0000027747  0.000113  0.000215  0.000913  0.000033
  8   -652.83223737   0.0000018721  0.000160  0.000172  0.000491  0.000020
  9   -652.83224053  -0.0000031513  0.000023  0.000044  0.000204  0.000007
 10   -652.83224046   0.0000000704  0.000037  0.000024  0.000130  0.000004
 11   -652.83224059  -0.0000001325  0.000003  0.000006  0.000024  0.000001
 12   -652.83224059   0.0000000009  0.000006  0.000004  0.000015  0.000001
                  ***Gradient check signals convergence***
              ***Rediagonalizing the Fockian in SOSCF/NRSCF***

               *****************************************************
               *                     SUCCESS                       *
               *           SCF CONVERGED AFTER  13 CYCLES          *
               *****************************************************

Setting up the final grid:

General Integration Accuracy     IntAcc      ...  4.670
Radial Grid Type                 RadialGrid  ... Gauss-Chebyshev
Angular Grid (max. acc.)         AngularGrid ... Lebedev-302
Angular grid pruning method      GridPruning ... 3 (G Style)
Weight generation scheme         WeightScheme... Becke
Basis function cutoff            BFCut       ...    1.0000e-11
Integration weight cutoff        WCut        ...    1.0000e-14
Grids for H and He will be reduced by one unit

# of grid points (after initial pruning)     ... 135060 (   0.1 sec)
# of grid points (after weights+screening)   ... 118667 (   1.3 sec)
nearest neighbour list constructed           ...    0.0 sec
Grid point re-assignment to atoms done       ...    0.0 sec
Grid point division into batches done        ...    0.4 sec
Reduced shell lists constructed in    1.5 sec

Total number of grid points                  ...   118667
Total number of batches                      ...     1871
Average number of points per batch           ...       63
Average number of grid points per atom       ...     4092
Average number of shells per batch           ...    55.11 (56.82%)
Average number of basis functions per batch  ...    89.72 (60.21%)
Average number of large shells per batch     ...    37.92 (68.80%)
Average number of large basis fcns per batch ...    63.01 (70.23%)
Maximum spatial batch extension              ...  18.40, 20.02, 19.23 au
Average spatial batch extension              ...   2.15,  2.21,  2.21 au

Final grid set up in    3.7 sec
Final integration                            ... done (   3.2 sec)
Change in XC energy                          ...    -0.000667727
Integrated number of electrons               ...   102.000085466
Previous integrated no of electrons          ...   101.995742516

----------------
TOTAL SCF ENERGY
----------------

Total Energy       :         -652.83290832 Eh          -17764.48656 eV

Components:
Nuclear Repulsion  :          879.41571641 Eh           23930.11823 eV
Electronic Energy  :        -1532.24862473 Eh          -41694.60479 eV
One Electron Energy:        -2636.75151082 Eh          -71749.65629 eV
Two Electron Energy:         1104.50288609 Eh           30055.05150 eV

Virial components:
Potential Energy   :        -1301.77569161 Eh          -35423.11745 eV
Kinetic Energy     :          648.94278329 Eh           17658.63088 eV
Virial Ratio       :            2.00599456


DFT components:
N(Alpha)           :       51.000042733051 electrons
N(Beta)            :       51.000042733051 electrons
N(Total)           :      102.000085466103 electrons
E(X)               :      -67.592199097494 Eh       
E(C)               :       -4.071031287452 Eh       
E(XC)              :      -71.663230384945 Eh       
DFET-embed. en.    :        0.000000000000 Eh       

---------------
SCF CONVERGENCE
---------------

  Last Energy change         ...   -1.4251e-09  Tolerance :   1.0000e-08
  Last MAX-Density change    ...    3.2570e-06  Tolerance :   1.0000e-07
  Last RMS-Density change    ...    1.0702e-07  Tolerance :   5.0000e-09
  Last Orbital Gradient      ...    3.8048e-07  Tolerance :   1.0000e-05
  Last Orbital Rotation      ...    5.9319e-07  Tolerance :   1.0000e-05

             **** THE GBW FILE WAS UPDATED (project_8048/ensemble_195_120.gbw) ****
             **** DENSITY FILE WAS UPDATED (project_8048/ensemble_195_120.scfp) ****
             **** ENERGY FILE WAS UPDATED (project_8048/ensemble_195_120.en.tmp) ****
             **** THE GBW FILE WAS UPDATED (project_8048/ensemble_195_120.gbw) ****
             **** DENSITY FILE WAS UPDATED (project_8048/ensemble_195_120.scfp) ****
----------------
ORBITAL ENERGIES
----------------

  NO   OCC          E(Eh)            E(eV) 
   0   2.0000     -19.160723      -521.3898 
   1   2.0000     -19.150172      -521.1027 
   2   2.0000     -19.135653      -520.7076 
   3   2.0000     -19.133703      -520.6545 
   4   2.0000     -10.294292      -280.1219 
   5   2.0000     -10.240923      -278.6697 
   6   2.0000     -10.238092      -278.5926 
   7   2.0000     -10.236906      -278.5604 
   8   2.0000     -10.233709      -278.4734 
   9   2.0000     -10.216083      -277.9937 
  10   2.0000     -10.198200      -277.5071 
  11   2.0000     -10.194150      -277.3969 
  12   2.0000     -10.168160      -276.6897 
  13   2.0000      -1.044045       -28.4099 
  14   2.0000      -1.020503       -27.7693 
  15   2.0000      -0.971800       -26.4440 
  16   2.0000      -0.955143       -25.9908 
  17   2.0000      -0.794759       -21.6265 
  18   2.0000      -0.773971       -21.0608 
  19   2.0000      -0.757129       -20.6025 
  20   2.0000      -0.737510       -20.0687 
  21   2.0000      -0.670611       -18.2482 
  22   2.0000      -0.606366       -16.5000 
  23   2.0000      -0.598142       -16.2763 
  24   2.0000      -0.585322       -15.9274 
  25   2.0000      -0.572077       -15.5670 
  26   2.0000      -0.516821       -14.0634 
  27   2.0000      -0.501683       -13.6515 
  28   2.0000      -0.495317       -13.4783 
  29   2.0000      -0.483194       -13.1484 
  30   2.0000      -0.467968       -12.7341 
  31   2.0000      -0.450084       -12.2474 
  32   2.0000      -0.441798       -12.0219 
  33   2.0000      -0.428021       -11.6470 
  34   2.0000      -0.416391       -11.3306 
  35   2.0000      -0.410714       -11.1761 
  36   2.0000      -0.404098       -10.9961 
  37   2.0000      -0.381286       -10.3753 
  38   2.0000      -0.374112       -10.1801 
  39   2.0000      -0.366012        -9.9597 
  40   2.0000      -0.364703        -9.9241 
  41   2.0000      -0.356273        -9.6947 
  42   2.0000      -0.352445        -9.5905 
  43   2.0000      -0.327795        -8.9198 
  44   2.0000      -0.315054        -8.5731 
  45   2.0000      -0.310127        -8.4390 
  46   2.0000      -0.299284        -8.1439 
  47   2.0000      -0.271241        -7.3808 
  48   2.0000      -0.259684        -7.0664 
  49   2.0000      -0.255455        -6.9513 
  50   2.0000      -0.235401        -6.4056 
  51   0.0000       0.047321         1.2877 
  52   0.0000       0.052518         1.4291 
  53   0.0000       0.082667         2.2495 
  54   0.0000       0.087293         2.3754 
  55   0.0000       0.099567         2.7093 
  56   0.0000       0.107543         2.9264 
  57   0.0000       0.111267         3.0277 
  58   0.0000       0.120889         3.2896 
  59   0.0000       0.125279         3.4090 
  60   0.0000       0.136000         3.7008 
  61   0.0000       0.145429         3.9573 
  62   0.0000       0.146283         3.9806 
  63   0.0000       0.152142         4.1400 
  64   0.0000       0.159035         4.3276 
  65   0.0000       0.161922         4.4061 
  66   0.0000       0.168167         4.5761 
  67   0.0000       0.182130         4.9560 
  68   0.0000       0.185704         5.0533 
  69   0.0000       0.190160         5.1745 
  70   0.0000       0.200118         5.4455 
  71   0.0000       0.213440         5.8080 
  72   0.0000       0.218984         5.9589 
  73   0.0000       0.231635         6.3031 
  74   0.0000       0.239982         6.5302 
  75   0.0000       0.246249         6.7008 
  76   0.0000       0.261303         7.1104 
  77   0.0000       0.276728         7.5301 
  78   0.0000       0.279887         7.6161 
  79   0.0000       0.296556         8.0697 
  80   0.0000       0.311945         8.4885 
  81   0.0000       0.518392        14.1062 
  82   0.0000       0.529982        14.4215 
  83   0.0000       0.543252        14.7826 
  84   0.0000       0.544833        14.8257 
  85   0.0000       0.559224        15.2172 
  86   0.0000       0.561977        15.2922 
  87   0.0000       0.573358        15.6019 
  88   0.0000       0.587213        15.9789 
  89   0.0000       0.593316        16.1450 
  90   0.0000       0.603813        16.4306 
  91   0.0000       0.614440        16.7198 
  92   0.0000       0.617321        16.7982 
  93   0.0000       0.637021        17.3342 
  94   0.0000       0.639022        17.3887 
  95   0.0000       0.652953        17.7678 
  96   0.0000       0.655096        17.8261 
  97   0.0000       0.670548        18.2465 
  98   0.0000       0.694198        18.8901 
  99   0.0000       0.714088        19.4313 
 100   0.0000       0.750106        20.4114 
 101   0.0000       0.771701        20.9991 
 102   0.0000       0.781869        21.2757 
 103   0.0000       0.813045        22.1241 
 104   0.0000       0.821023        22.3412 
 105   0.0000       0.823260        22.4021 
 106   0.0000       0.831110        22.6157 
 107   0.0000       0.850031        23.1305 
 108   0.0000       0.857340        23.3294 
 109   0.0000       0.878625        23.9086 
 110   0.0000       0.884368        24.0649 
 111   0.0000       0.885989        24.1090 
 112   0.0000       0.895039        24.3552 
 113   0.0000       0.905983        24.6531 
 114   0.0000       0.915346        24.9078 
 115   0.0000       0.933677        25.4066 
 116   0.0000       0.935860        25.4660 
 117   0.0000       0.940691        25.5975 
 118   0.0000       0.954453        25.9720 
 119   0.0000       0.959753        26.1162 
 120   0.0000       0.975508        26.5449 
 121   0.0000       0.981214        26.7002 
 122   0.0000       0.989401        26.9230 
 123   0.0000       1.009132        27.4599 
 124   0.0000       1.036477        28.2040 
 125   0.0000       1.074073        29.2270 
 126   0.0000       1.088329        29.6149 
 127   0.0000       1.110568        30.2201 
 128   0.0000       1.122895        30.5555 
 129   0.0000       1.132121        30.8066 
 130   0.0000       1.177660        32.0458 
 131   0.0000       1.235320        33.6148 
 132   0.0000       1.265495        34.4359 
 133   0.0000       1.313409        35.7397 
 134   0.0000       1.328769        36.1576 
 135   0.0000       1.369932        37.2777 
 136   0.0000       1.396506        38.0009 
 137   0.0000       1.416835        38.5540 
 138   0.0000       1.443218        39.2720 
 139   0.0000       1.454940        39.5909 
 140   0.0000       1.513523        41.1851 
 141   0.0000       1.545882        42.0656 
 142   0.0000       1.614077        43.9213 
 143   0.0000       1.704271        46.3756 
 144   0.0000       1.761594        47.9354 
 145   0.0000       1.862100        50.6703 
 146   0.0000       1.929763        52.5115 
 147   0.0000       2.060295        56.0635 
 148   0.0000       2.139513        58.2191 

                    ********************************
                    * MULLIKEN POPULATION ANALYSIS *
                    ********************************

-----------------------
MULLIKEN ATOMIC CHARGES
-----------------------
   0 C :    0.294399
   1 C :   -0.275355
   2 C :   -0.299262
   3 C :   -0.003822
   4 O :   -0.508818
   5 H :    0.147126
   6 H :    0.150230
   7 H :    0.153346
   8 H :    0.145309
   9 H :    0.166201
  10 H :    0.156248
  11 H :    0.145885
  12 C :   -0.030010
  13 H :    0.161381
  14 H :    0.123975
  15 O :   -0.513537
  16 C :    0.076032
  17 C :    0.072447
  18 C :   -0.299674
  19 C :   -0.015786
  20 O :   -0.524382
  21 H :    0.159040
  22 O :   -0.605014
  23 H :    0.140397
  24 H :    0.143989
  25 H :    0.203371
  26 H :    0.156404
  27 H :    0.129597
  28 H :    0.350283
Sum of atomic charges:    0.0000000

--------------------------------
MULLIKEN REDUCED ORBITAL CHARGES
--------------------------------
  0 C s       :     3.229224  s :     3.229224
      pz      :     0.790769  p :     2.476377
      px      :     0.693237
      py      :     0.992371
  1 C s       :     3.308608  s :     3.308608
      pz      :     0.988678  p :     2.966747
      px      :     1.034739
      py      :     0.943331
  2 C s       :     3.316130  s :     3.316130
      pz      :     0.902783  p :     2.983132
      px      :     1.089327
      py      :     0.991022
  3 C s       :     3.262883  s :     3.262883
      pz      :     0.941722  p :     2.740939
      px      :     1.059745
      py      :     0.739473
  4 O s       :     3.951089  s :     3.951089
      pz      :     1.317599  p :     4.557729
      px      :     1.717546
      py      :     1.522584
  5 H s       :     0.852874  s :     0.852874
  6 H s       :     0.849770  s :     0.849770
  7 H s       :     0.846654  s :     0.846654
  8 H s       :     0.854691  s :     0.854691
  9 H s       :     0.833799  s :     0.833799
 10 H s       :     0.843752  s :     0.843752
 11 H s       :     0.854115  s :     0.854115
 12 C s       :     3.287620  s :     3.287620
      pz      :     0.762214  p :     2.742390
      px      :     0.928820
      py      :     1.051355
 13 H s       :     0.838619  s :     0.838619
 14 H s       :     0.876025  s :     0.876025
 15 O s       :     3.948884  s :     3.948884
      pz      :     1.435464  p :     4.564653
      px      :     1.255395
      py      :     1.873793
 16 C s       :     3.266810  s :     3.266810
      pz      :     0.899711  p :     2.657158
      px      :     0.840795
      py      :     0.916651
 17 C s       :     3.302017  s :     3.302017
      pz      :     0.931485  p :     2.625535
      px      :     0.919367
      py      :     0.774683
 18 C s       :     3.316804  s :     3.316804
      pz      :     0.896231  p :     2.982870
      px      :     1.021742
      py      :     1.064897
 19 C s       :     3.264930  s :     3.264930
      pz      :     0.855516  p :     2.750855
      px      :     0.964433
      py      :     0.930907
 20 O s       :     3.943536  s :     3.943536
      pz      :     1.259026  p :     4.580847
      px      :     1.595588
      py      :     1.726233
 21 H s       :     0.840960  s :     0.840960
 22 O s       :     3.950000  s :     3.950000
      pz      :     1.739350  p :     4.655014
      px      :     1.278068
      py      :     1.637596
 23 H s       :     0.859603  s :     0.859603
 24 H s       :     0.856011  s :     0.856011
 25 H s       :     0.796629  s :     0.796629
 26 H s       :     0.843596  s :     0.843596
 27 H s       :     0.870403  s :     0.870403
 28 H s       :     0.649717  s :     0.649717


                     *******************************
                     * LOEWDIN POPULATION ANALYSIS *
                     *******************************

----------------------
LOEWDIN ATOMIC CHARGES
----------------------
   0 C :    0.184675
   1 C :   -0.224968
   2 C :   -0.216294
   3 C :   -0.027022
   4 O :   -0.302656
   5 H :    0.100153
   6 H :    0.116418
   7 H :    0.120164
   8 H :    0.115761
   9 H :    0.121032
  10 H :    0.110087
  11 H :    0.104060
  12 C :   -0.044522
  13 H :    0.117907
  14 H :    0.097697
  15 O :   -0.362387
  16 C :    0.018416
  17 C :    0.043747
  18 C :   -0.243056
  19 C :   -0.031541
  20 O :   -0.330546
  21 H :    0.121849
  22 O :   -0.448956
  23 H :    0.113074
  24 H :    0.115977
  25 H :    0.141303
  26 H :    0.110808
  27 H :    0.092484
  28 H :    0.286334

-------------------------------
LOEWDIN REDUCED ORBITAL CHARGES
-------------------------------
  0 C s       :     2.980494  s :     2.980494
      pz      :     0.916004  p :     2.834831
      px      :     0.834244
      py      :     1.084583
  1 C s       :     2.978815  s :     2.978815
      pz      :     1.078396  p :     3.246153
      px      :     1.108598
      py      :     1.059159
  2 C s       :     2.973017  s :     2.973017
      pz      :     1.028517  p :     3.243277
      px      :     1.135049
      py      :     1.079711
  3 C s       :     2.984182  s :     2.984182
      pz      :     1.039416  p :     3.042840
      px      :     1.120488
      py      :     0.882936
  4 O s       :     3.606437  s :     3.606437
      pz      :     1.379933  p :     4.696219
      px      :     1.748672
      py      :     1.567614
  5 H s       :     0.899847  s :     0.899847
  6 H s       :     0.883582  s :     0.883582
  7 H s       :     0.879836  s :     0.879836
  8 H s       :     0.884239  s :     0.884239
  9 H s       :     0.878968  s :     0.878968
 10 H s       :     0.889913  s :     0.889913
 11 H s       :     0.895940  s :     0.895940
 12 C s       :     3.006950  s :     3.006950
      pz      :     0.882326  p :     3.037572
      px      :     1.035940
      py      :     1.119306
 13 H s       :     0.882093  s :     0.882093
 14 H s       :     0.902303  s :     0.902303
 15 O s       :     3.662651  s :     3.662651
      pz      :     1.491967  p :     4.699736
      px      :     1.317563
      py      :     1.890206
 16 C s       :     2.969203  s :     2.969203
      pz      :     0.982154  p :     3.012381
      px      :     0.971043
      py      :     1.059184
 17 C s       :     2.974889  s :     2.974889
      pz      :     1.047709  p :     2.981364
      px      :     1.003870
      py      :     0.929786
 18 C s       :     2.982864  s :     2.982864
      pz      :     1.033088  p :     3.260192
      px      :     1.106900
      py      :     1.120204
 19 C s       :     2.983865  s :     2.983865
      pz      :     0.960153  p :     3.047676
      px      :     1.067531
      py      :     1.019992
 20 O s       :     3.601107  s :     3.601107
      pz      :     1.327498  p :     4.729440
      px      :     1.643755
      py      :     1.758187
 21 H s       :     0.878151  s :     0.878151
 22 O s       :     3.692055  s :     3.692055
      pz      :     1.761349  p :     4.756902
      px      :     1.326524
      py      :     1.669028
 23 H s       :     0.886926  s :     0.886926
 24 H s       :     0.884023  s :     0.884023
 25 H s       :     0.858697  s :     0.858697
 26 H s       :     0.889192  s :     0.889192
 27 H s       :     0.907516  s :     0.907516
 28 H s       :     0.713666  s :     0.713666


                      *****************************
                      * MAYER POPULATION ANALYSIS *
                      *****************************

  NA   - Mulliken gross atomic population
  ZA   - Total nuclear charge
  QA   - Mulliken gross atomic charge
  VA   - Mayer's total valence
  BVA  - Mayer's bonded valence
  FA   - Mayer's free valence

  ATOM       NA         ZA         QA         VA         BVA        FA
  0 C      5.7056     6.0000     0.2944     3.6380     3.6380    -0.0000
  1 C      6.2754     6.0000    -0.2754     3.7248     3.7248    -0.0000
  2 C      6.2993     6.0000    -0.2993     3.7616     3.7616    -0.0000
  3 C      6.0038     6.0000    -0.0038     3.6490     3.6490     0.0000
  4 O      8.5088     8.0000    -0.5088     1.8194     1.8194    -0.0000
  5 H      0.8529     1.0000     0.1471     0.9302     0.9302     0.0000
  6 H      0.8498     1.0000     0.1502     0.9304     0.9304     0.0000
  7 H      0.8467     1.0000     0.1533     0.9376     0.9376     0.0000
  8 H      0.8547     1.0000     0.1453     0.9361     0.9361    -0.0000
  9 H      0.8338     1.0000     0.1662     0.9336     0.9336    -0.0000
 10 H      0.8438     1.0000     0.1562     0.9249     0.9249     0.0000
 11 H      0.8541     1.0000     0.1459     0.9278     0.9278     0.0000
 12 C      6.0300     6.0000    -0.0300     3.6301     3.6301    -0.0000
 13 H      0.8386     1.0000     0.1614     0.9293     0.9293     0.0000
 14 H      0.8760     1.0000     0.1240     0.9335     0.9335     0.0000
 15 O      8.5135     8.0000    -0.5135     1.7806     1.7806     0.0000
 16 C      5.9240     6.0000     0.0760     3.6057     3.6057     0.0000
 17 C      5.9276     6.0000     0.0724     3.6535     3.6535     0.0000
 18 C      6.2997     6.0000    -0.2997     3.6810     3.6810    -0.0000
 19 C      6.0158     6.0000    -0.0158     3.6635     3.6635     0.0000
 20 O      8.5244     8.0000    -0.5244     1.7690     1.7690     0.0000
 21 H      0.8410     1.0000     0.1590     0.9348     0.9348     0.0000
 22 O      8.6050     8.0000    -0.6050     1.7502     1.7502     0.0000
 23 H      0.8596     1.0000     0.1404     0.9425     0.9425     0.0000
 24 H      0.8560     1.0000     0.1440     0.9397     0.9397    -0.0000
 25 H      0.7966     1.0000     0.2034     0.9355     0.9355    -0.0000
 26 H      0.8436     1.0000     0.1564     0.9300     0.9300     0.0000
 27 H      0.8704     1.0000     0.1296     0.9294     0.9294    -0.0000
 28 H      0.6497     1.0000     0.3503     0.8482     0.8482     0.0000

  Mayer bond orders larger than 0.100000
B(  0-C ,  1-C ) :   0.9320 B(  0-C ,  4-O ) :   0.9208 B(  0-C ,  5-H ) :   0.9169 
B(  0-C , 15-O ) :   0.8138 B(  1-C ,  2-C ) :   0.9553 B(  1-C ,  6-H ) :   0.9316 
B(  1-C ,  7-H ) :   0.9351 B(  2-C ,  3-C ) :   0.9546 B(  2-C ,  8-H ) :   0.9442 
B(  2-C ,  9-H ) :   0.9431 B(  3-C ,  4-O ) :   0.8300 B(  3-C , 10-H ) :   0.9336 
B(  3-C , 11-H ) :   0.9382 B( 12-C , 13-H ) :   0.9271 B( 12-C , 14-H ) :   0.9118 
B( 12-C , 15-O ) :   0.8600 B( 12-C , 16-C ) :   0.8838 B( 16-C , 17-C ) :   0.9085 
B( 16-C , 20-O ) :   0.8814 B( 16-C , 21-H ) :   0.9200 B( 17-C , 18-C ) :   0.9263 
B( 17-C , 22-O ) :   0.8815 B( 17-C , 23-H ) :   0.9339 B( 18-C , 19-C ) :   0.9456 
B( 18-C , 24-H ) :   0.9369 B( 18-C , 25-H ) :   0.8969 B( 19-C , 20-O ) :   0.8359 
B( 19-C , 26-H ) :   0.9324 B( 19-C , 27-H ) :   0.9377 B( 22-O , 28-H ) :   0.8082 


-------
TIMINGS
-------

Total SCF time: 0 days 0 hours 6 min 24 sec 

Total time                  ....     384.892 sec
Sum of individual times     ....     335.165 sec  ( 87.1%)

Fock matrix formation       ....     269.808 sec  ( 70.1%)
  XC integration            ....      86.487 sec  ( 32.1% of F)
    Basis function eval.    ....       3.444 sec  (  4.0% of XC)
    Density eval.           ....       2.172 sec  (  2.5% of XC)
    XC-Functional eval.     ....       2.005 sec  (  2.3% of XC)
    XC-Potential eval.      ....       1.405 sec  (  1.6% of XC)
Diagonalization             ....      10.250 sec  (  2.7%)
Density matrix formation    ....       0.011 sec  (  0.0%)
Population analysis         ....      10.183 sec  (  2.6%)
Initial guess               ....      22.806 sec  (  5.9%)
Orbital Transformation      ....       0.000 sec  (  0.0%)
Orbital Orthonormalization  ....       0.000 sec  (  0.0%)
DIIS solution               ....       6.013 sec  (  1.6%)
SOSCF solution              ....       0.117 sec  (  0.0%)
Grid generation             ....      15.977 sec  (  4.2%)

-------------------------   --------------------
FINAL SINGLE POINT ENERGY      -652.832908315320
-------------------------   --------------------

------------------------------------------------------------------------------
                         ORCA SCF GRADIENT CALCULATION
------------------------------------------------------------------------------

Gradient of the Kohn-Sham DFT energy:
Kohn-Sham wavefunction type      ... RKS
Hartree-Fock exchange scaling    ...    0.200
Number of operators              ...    1
Number of atoms                  ...   29
Basis set dimensions             ...  149
Integral neglect threshold       ... 2.5e-11
Integral primitive cutoff        ... 2.5e-12

Nuclear repulsion gradient       ... done
One Electron Gradient            ... done
Pre-screening matrix             ... done
Starting the two electron gradient:
Two electron gradient done
Exchange-correlation gradient    ... done

------------------
CARTESIAN GRADIENT
------------------

   1   C   :    0.009475929   -0.001205948   -0.003798499
   2   C   :    0.007453331   -0.003023874   -0.003809424
   3   C   :    0.000205818   -0.000479702   -0.001832306
   4   C   :    0.000088345   -0.006632321   -0.004531575
   5   O   :    0.020108854   -0.006310838    0.021163707
   6   H   :    0.003379439    0.002296033   -0.000896974
   7   H   :   -0.000029492    0.002136748    0.000202680
   8   H   :   -0.000239614    0.001488840   -0.000859373
   9   H   :   -0.000673999    0.000850061    0.000234265
  10   H   :   -0.000639518    0.001945828    0.000849519
  11   H   :   -0.000426756    0.001126082    0.001696215
  12   H   :   -0.000209283    0.001418616    0.000911167
  13   C   :   -0.007342828    0.005124694   -0.011988686
  14   H   :   -0.004453530    0.000728131   -0.007749431
  15   H   :   -0.004168641   -0.001411641   -0.001702022
  16   O   :   -0.015293808   -0.006869900    0.026822200
  17   C   :   -0.014824310   -0.005785384   -0.014765146
  18   C   :    0.028786564    0.018730856   -0.005334301
  19   C   :    0.000156080    0.005816628   -0.002654239
  20   C   :   -0.003586803    0.001222050   -0.004511259
  21   O   :    0.000570065    0.000403882    0.003115731
  22   H   :   -0.000751438    0.001393133    0.002122942
  23   O   :    0.030198064   -0.023328050   -0.032528483
  24   H   :    0.007452997    0.008129096    0.004910061
  25   H   :    0.002482737    0.001412139    0.004516363
  26   H   :    0.007011877    0.003177257    0.001148723
  27   H   :   -0.000776673   -0.000038224    0.001899786
  28   H   :    0.000925484    0.000282933   -0.000019524
  29   H   :   -0.064878891   -0.002597126    0.027387885

Difference to translation invariance:
           :    0.0000000001   -0.0000000000   -0.0000000001

Norm of the cartesian gradient     ...    0.1095587809
RMS gradient                       ...    0.0117459342
MAX gradient                       ...    0.0648788909

-------
TIMINGS
-------

Total SCF gradient time            ...       33.748 sec

One electron gradient       ....       0.354 sec  (  1.0%)
Prescreening matrices       ....       0.049 sec  (  0.1%)
Two electron gradient       ....      15.573 sec  ( 46.1%)
XC gradient                 ....       9.886 sec  ( 29.3%)
------------------------------------------------------------------------------
                         ORCA GEOMETRY RELAXATION STEP
------------------------------------------------------------------------------

Reading the OPT-File                    .... done
Getting information on internals        .... done
Copying old internal coords+grads       .... done
Making the new internal coordinates     .... (new redundants).... done
Validating the new internal coordinates .... (new redundants).... done
Calculating the B-matrix                .... done
Calculating the G,G- and P matrices     .... done
Transforming gradient to internals      .... done
Projecting the internal gradient        .... done
Number of atoms                         ....  29
Number of internal coordinates          .... 172
Current Energy                          ....  -652.832908315 Eh
Current gradient norm                   ....     0.109558781 Eh/bohr
Maximum allowed component of the step   ....  0.300
Current trust radius                    ....  0.300
Evaluating the initial hessian          ....  (Almloef) done
Projecting the Hessian                  .... done
Forming the augmented Hessian           .... done
Diagonalizing the augmented Hessian     .... done
Last element of RFO vector              ....  0.924516714
Lowest eigenvalues of augmented Hessian:
 -0.043348486  0.007820839  0.033058770  0.033327961  0.036844023
Length of the computed step             ....  0.412260262
Warning: the length of the step is outside the trust region - taking restricted step instead
The input lambda is                     ....    -0.043348
   iter:   1  x=   -0.086868  g=    1.837314 f(x)=     0.079959
   iter:   2  x=   -0.116782  g=    0.858699 f(x)=     0.025688
   iter:   3  x=   -0.124134  g=    0.593169 f(x)=     0.004360
   iter:   4  x=   -0.124446  g=    0.547611 f(x)=     0.000171
   iter:   5  x=   -0.124446  g=    0.545798 f(x)=     0.000000
   iter:   6  x=   -0.124446  g=    0.545795 f(x)=     0.000000
   iter:   7  x=   -0.124446  g=    0.545795 f(x)=     0.000000
The output lambda is                    ....    -0.124446 (7 iterations)
The final length of the internal step   ....  0.300000000
Converting the step to cartesian space:
 Initial RMS(Int)=    0.0228747855
Transforming coordinates:
 Iter   0:  RMS(Cart)=    0.1284748918 RMS(Int)=    0.4785169340
 Iter   1:  RMS(Cart)=    0.0061964983 RMS(Int)=    0.0026808084
 Iter   2:  RMS(Cart)=    0.0005545983 RMS(Int)=    0.0001917839
 Iter   3:  RMS(Cart)=    0.0000537604 RMS(Int)=    0.0000230870
 Iter   4:  RMS(Cart)=    0.0000054473 RMS(Int)=    0.0000032337
 Iter   5:  RMS(Cart)=    0.0000004898 RMS(Int)=    0.0000002932
 Iter   6:  RMS(Cart)=    0.0000000624 RMS(Int)=    0.0000000344
Imposing constraints:
 Iter   0:  RMS(Cart)=    0.0000959230 RMS(Int)=    0.0000936862
 Iter   1:  RMS(Cart)=    0.0000692642 RMS(Int)=    0.0000771079
 Iter   2:  RMS(Cart)=    0.0000506086 RMS(Int)=    0.0000670631
 Iter   3:  RMS(Cart)=    0.0000376085 RMS(Int)=    0.0000609427
 Iter   4:  RMS(Cart)=    0.0000285919 RMS(Int)=    0.0000570578
 Iter   5:  RMS(Cart)=    0.0000223695 RMS(Int)=    0.0000543979
 Iter   6:  RMS(Cart)=    0.0000180938 RMS(Int)=    0.0000523980
 Iter   7:  RMS(Cart)=    0.0000151596 RMS(Int)=    0.0000507560
 Iter   8:  RMS(Cart)=    0.0000131365 RMS(Int)=    0.0000493146
 Iter   9:  RMS(Cart)=    0.0000117227 RMS(Int)=    0.0000479925
 Iter  10:  RMS(Cart)=    0.0000107120 RMS(Int)=    0.0000467482
 Iter  11:  RMS(Cart)=    0.0000099666 RMS(Int)=    0.0000455599
[...]
  29   2.0000      -0.488637       -13.2965 
  30   2.0000      -0.473657       -12.8889 
  31   2.0000      -0.456273       -12.4158 
  32   2.0000      -0.448478       -12.2037 
  33   2.0000      -0.434702       -11.8288 
  34   2.0000      -0.429305       -11.6820 
  35   2.0000      -0.409571       -11.1450 
  36   2.0000      -0.404172       -10.9981 
  37   2.0000      -0.383286       -10.4297 
  38   2.0000      -0.380812       -10.3624 
  39   2.0000      -0.363154        -9.8819 
  40   2.0000      -0.362783        -9.8718 
  41   2.0000      -0.355442        -9.6721 
  42   2.0000      -0.353889        -9.6298 
  43   2.0000      -0.326655        -8.8887 
  44   2.0000      -0.318246        -8.6599 
  45   2.0000      -0.311924        -8.4879 
  46   2.0000      -0.300157        -8.1677 
  47   2.0000      -0.268562        -7.3079 
  48   2.0000      -0.263197        -7.1620 
  49   2.0000      -0.260339        -7.0842 
  50   2.0000      -0.235051        -6.3961 
  51   0.0000       0.067737         1.8432 
  52   0.0000       0.079168         2.1543 
  53   0.0000       0.089966         2.4481 
  54   0.0000       0.102536         2.7901 
  55   0.0000       0.111416         3.0318 
  56   0.0000       0.116863         3.1800 
  57   0.0000       0.117742         3.2039 
  58   0.0000       0.125329         3.4104 
  59   0.0000       0.131412         3.5759 
  60   0.0000       0.139657         3.8003 
  61   0.0000       0.148402         4.0382 
  62   0.0000       0.149431         4.0662 
  63   0.0000       0.160138         4.3576 
  64   0.0000       0.165535         4.5044 
  65   0.0000       0.166737         4.5371 
  66   0.0000       0.173448         4.7198 
  67   0.0000       0.185309         5.0425 
  68   0.0000       0.191208         5.2030 
  69   0.0000       0.194780         5.3002 
  70   0.0000       0.217998         5.9320 
  71   0.0000       0.221630         6.0309 
  72   0.0000       0.230335         6.2677 
  73   0.0000       0.239738         6.5236 
  74   0.0000       0.247177         6.7260 
  75   0.0000       0.251385         6.8405 
  76   0.0000       0.272708         7.4208 
  77   0.0000       0.281602         7.6628 
  78   0.0000       0.296000         8.0546 
  79   0.0000       0.311475         8.4757 
  80   0.0000       0.314034         8.5453 
  81   0.0000       0.519775        14.1438 
  82   0.0000       0.538435        14.6516 
  83   0.0000       0.544944        14.8287 
  84   0.0000       0.549223        14.9451 
  85   0.0000       0.563684        15.3386 
  86   0.0000       0.565629        15.3916 
  87   0.0000       0.576711        15.6931 
  88   0.0000       0.587319        15.9818 
  89   0.0000       0.595695        16.2097 
  90   0.0000       0.600693        16.3457 
  91   0.0000       0.609743        16.5919 
  92   0.0000       0.621185        16.9033 
  93   0.0000       0.633475        17.2377 
  94   0.0000       0.641916        17.4674 
  95   0.0000       0.652161        17.7462 
  96   0.0000       0.658263        17.9122 
  97   0.0000       0.672267        18.2933 
  98   0.0000       0.712580        19.3903 
  99   0.0000       0.722261        19.6537 
 100   0.0000       0.755889        20.5688 
 101   0.0000       0.768579        20.9141 
 102   0.0000       0.787152        21.4195 
 103   0.0000       0.818724        22.2786 
 104   0.0000       0.832040        22.6410 
 105   0.0000       0.833036        22.6681 
 106   0.0000       0.836891        22.7730 
 107   0.0000       0.851528        23.1713 
 108   0.0000       0.863610        23.5000 
 109   0.0000       0.882619        24.0173 
 110   0.0000       0.885830        24.1047 
 111   0.0000       0.891397        24.2562 
 112   0.0000       0.897341        24.4179 
 113   0.0000       0.901096        24.5201 
 114   0.0000       0.916955        24.9516 
 115   0.0000       0.932637        25.3783 
 116   0.0000       0.937841        25.5199 
 117   0.0000       0.944809        25.7096 
 118   0.0000       0.953074        25.9345 
 119   0.0000       0.958769        26.0894 
 120   0.0000       0.973400        26.4876 
 121   0.0000       0.981549        26.7093 
 122   0.0000       0.995238        27.0818 
 123   0.0000       1.005420        27.3589 
 124   0.0000       1.031602        28.0713 
 125   0.0000       1.081911        29.4403 
 126   0.0000       1.093108        29.7450 
 127   0.0000       1.121199        30.5094 
 128   0.0000       1.130559        30.7641 
 129   0.0000       1.139219        30.9997 
 130   0.0000       1.163169        31.6514 
 131   0.0000       1.224535        33.3213 
 132   0.0000       1.260818        34.3086 
 133   0.0000       1.314581        35.7716 
 134   0.0000       1.339354        36.4457 
 135   0.0000       1.343810        36.5669 
 136   0.0000       1.411864        38.4188 
 137   0.0000       1.424302        38.7572 
 138   0.0000       1.454188        39.5705 
 139   0.0000       1.462827        39.8056 
 140   0.0000       1.524341        41.4794 
 141   0.0000       1.591039        43.2944 
 142   0.0000       1.625797        44.2402 
 143   0.0000       1.732783        47.1514 
 144   0.0000       1.774659        48.2909 
 145   0.0000       1.908391        51.9299 
 146   0.0000       1.933315        52.6082 
 147   0.0000       2.086318        56.7716 
 148   0.0000       2.127215        57.8845 

                    ********************************
                    * MULLIKEN POPULATION ANALYSIS *
                    ********************************

-----------------------
MULLIKEN ATOMIC CHARGES
-----------------------
   0 C :    0.295236
   1 C :   -0.267189
   2 C :   -0.298592
   3 C :   -0.002229
   4 O :   -0.510140
   5 H :    0.140533
   6 H :    0.146416
   7 H :    0.146443
   8 H :    0.144312
   9 H :    0.164430
  10 H :    0.156594
  11 H :    0.144484
  12 C :   -0.015163
  13 H :    0.158746
  14 H :    0.120373
  15 O :   -0.511101
  16 C :    0.078330
  17 C :    0.074366
  18 C :   -0.293207
  19 C :   -0.018182
  20 O :   -0.527291
  21 H :    0.148947
  22 O :   -0.605373
  23 H :    0.140871
  24 H :    0.147675
  25 H :    0.186732
  26 H :    0.158154
  27 H :    0.132469
  28 H :    0.363355
Sum of atomic charges:    0.0000000

--------------------------------
MULLIKEN REDUCED ORBITAL CHARGES
--------------------------------
  0 C s       :     3.202131  s :     3.202131
      pz      :     0.804170  p :     2.502633
      px      :     0.690637
      py      :     1.007826
  1 C s       :     3.303740  s :     3.303740
      pz      :     0.985544  p :     2.963449
      px      :     1.032483
      py      :     0.945422
  2 C s       :     3.315248  s :     3.315248
      pz      :     0.903789  p :     2.983344
      px      :     1.087310
      py      :     0.992245
  3 C s       :     3.264633  s :     3.264633
      pz      :     0.935880  p :     2.737596
      px      :     1.062878
      py      :     0.738838
  4 O s       :     3.943061  s :     3.943061
      pz      :     1.283654  p :     4.567079
      px      :     1.758939
      py      :     1.524487
  5 H s       :     0.859467  s :     0.859467
  6 H s       :     0.853584  s :     0.853584
  7 H s       :     0.853557  s :     0.853557
  8 H s       :     0.855688  s :     0.855688
  9 H s       :     0.835570  s :     0.835570
 10 H s       :     0.843406  s :     0.843406
 11 H s       :     0.855516  s :     0.855516
 12 C s       :     3.261500  s :     3.261500
      pz      :     0.772301  p :     2.753663
      px      :     0.923008
      py      :     1.058354
 13 H s       :     0.841254  s :     0.841254
 14 H s       :     0.879627  s :     0.879627
 15 O s       :     3.926354  s :     3.926354
      pz      :     1.466700  p :     4.584747
      px      :     1.257274
      py      :     1.860773
 16 C s       :     3.256195  s :     3.256195
      pz      :     0.877585  p :     2.665476
      px      :     0.863171
      py      :     0.924719
 17 C s       :     3.268903  s :     3.268903
      pz      :     0.934209  p :     2.656731
      px      :     0.906561
      py      :     0.815961
 18 C s       :     3.314482  s :     3.314482
      pz      :     0.906908  p :     2.978725
      px      :     1.021685
      py      :     1.050131
 19 C s       :     3.267918  s :     3.267918
      pz      :     0.877255  p :     2.750264
      px      :     0.984785
      py      :     0.888224
 20 O s       :     3.944086  s :     3.944086
      pz      :     1.283422  p :     4.583205
      px      :     1.620485
      py      :     1.679298
 21 H s       :     0.851053  s :     0.851053
 22 O s       :     3.919499  s :     3.919499
      pz      :     1.760230  p :     4.685874
      px      :     1.228443
      py      :     1.697200
 23 H s       :     0.859129  s :     0.859129
 24 H s       :     0.852325  s :     0.852325
 25 H s       :     0.813268  s :     0.813268
 26 H s       :     0.841846  s :     0.841846
 27 H s       :     0.867531  s :     0.867531
 28 H s       :     0.636645  s :     0.636645


                     *******************************
                     * LOEWDIN POPULATION ANALYSIS *
                     *******************************

----------------------
LOEWDIN ATOMIC CHARGES
----------------------
   0 C :    0.175544
   1 C :   -0.228184
   2 C :   -0.216052
   3 C :   -0.023744
   4 O :   -0.306830
   5 H :    0.094717
   6 H :    0.114663
   7 H :    0.115904
   8 H :    0.115678
   9 H :    0.120502
  10 H :    0.110862
  11 H :    0.103895
  12 C :   -0.041869
  13 H :    0.114430
  14 H :    0.095283
  15 O :   -0.334386
  16 C :    0.010534
  17 C :    0.037042
  18 C :   -0.241570
  19 C :   -0.031753
  20 O :   -0.330870
  21 H :    0.112986
  22 O :   -0.417715
  23 H :    0.109860
  24 H :    0.118115
  25 H :    0.134372
  26 H :    0.111727
  27 H :    0.094594
  28 H :    0.282265

-------------------------------
LOEWDIN REDUCED ORBITAL CHARGES
-------------------------------
  0 C s       :     2.955128  s :     2.955128
      pz      :     0.930219  p :     2.869328
      px      :     0.852058
      py      :     1.087051
  1 C s       :     2.979786  s :     2.979786
      pz      :     1.077024  p :     3.248398
      px      :     1.108869
      py      :     1.062505
  2 C s       :     2.970680  s :     2.970680
      pz      :     1.029390  p :     3.245372
      px      :     1.134690
      py      :     1.081292
  3 C s       :     2.985010  s :     2.985010
      pz      :     1.036027  p :     3.038734
      px      :     1.123009
      py      :     0.879698
  4 O s       :     3.592968  s :     3.592968
      pz      :     1.354871  p :     4.713862
      px      :     1.788265
      py      :     1.570725
  5 H s       :     0.905283  s :     0.905283
  6 H s       :     0.885337  s :     0.885337
  7 H s       :     0.884096  s :     0.884096
  8 H s       :     0.884322  s :     0.884322
  9 H s       :     0.879498  s :     0.879498
 10 H s       :     0.889138  s :     0.889138
 11 H s       :     0.896105  s :     0.896105
 12 C s       :     2.981260  s :     2.981260
      pz      :     0.907546  p :     3.060609
      px      :     1.032270
      py      :     1.120792
 13 H s       :     0.885570  s :     0.885570
 14 H s       :     0.904717  s :     0.904717
 15 O s       :     3.594869  s :     3.594869
      pz      :     1.530415  p :     4.739516
      px      :     1.328247
      py      :     1.880855
 16 C s       :     2.965437  s :     2.965437
      pz      :     0.969433  p :     3.024029
      px      :     0.988442
      py      :     1.066155
 17 C s       :     2.954302  s :     2.954302
      pz      :     1.041038  p :     3.008655
      px      :     0.997885
      py      :     0.969732
 18 C s       :     2.984136  s :     2.984136
      pz      :     1.039993  p :     3.257434
      px      :     1.106663
      py      :     1.110778
 19 C s       :     2.984990  s :     2.984990
      pz      :     0.976877  p :     3.046764
      px      :     1.082123
      py      :     0.987764
 20 O s       :     3.600298  s :     3.600298
      pz      :     1.351684  p :     4.730572
      px      :     1.663304
      py      :     1.715584
 21 H s       :     0.887014  s :     0.887014
 22 O s       :     3.614641  s :     3.614641
      pz      :     1.788592  p :     4.803074
      px      :     1.288833
      py      :     1.725648
 23 H s       :     0.890140  s :     0.890140
 24 H s       :     0.881885  s :     0.881885
 25 H s       :     0.865628  s :     0.865628
 26 H s       :     0.888273  s :     0.888273
 27 H s       :     0.905406  s :     0.905406
 28 H s       :     0.717735  s :     0.717735


                      *****************************
                      * MAYER POPULATION ANALYSIS *
                      *****************************

  NA   - Mulliken gross atomic population
  ZA   - Total nuclear charge
  QA   - Mulliken gross atomic charge
  VA   - Mayer's total valence
  BVA  - Mayer's bonded valence
  FA   - Mayer's free valence

  ATOM       NA         ZA         QA         VA         BVA        FA
  0 C      5.7048     6.0000     0.2952     3.6585     3.6585     0.0000
  1 C      6.2672     6.0000    -0.2672     3.7180     3.7180    -0.0000
  2 C      6.2986     6.0000    -0.2986     3.7640     3.7640    -0.0000
  3 C      6.0022     6.0000    -0.0022     3.6549     3.6549     0.0000
  4 O      8.5101     8.0000    -0.5101     1.7951     1.7951     0.0000
  5 H      0.8595     1.0000     0.1405     0.9329     0.9329    -0.0000
  6 H      0.8536     1.0000     0.1464     0.9324     0.9324    -0.0000
  7 H      0.8536     1.0000     0.1464     0.9384     0.9384    -0.0000
  8 H      0.8557     1.0000     0.1443     0.9366     0.9366    -0.0000
  9 H      0.8356     1.0000     0.1644     0.9346     0.9346    -0.0000
 10 H      0.8434     1.0000     0.1566     0.9254     0.9254     0.0000
 11 H      0.8555     1.0000     0.1445     0.9287     0.9287    -0.0000
 12 C      6.0152     6.0000    -0.0152     3.6325     3.6325     0.0000
 13 H      0.8413     1.0000     0.1587     0.9286     0.9286     0.0000
 14 H      0.8796     1.0000     0.1204     0.9373     0.9373    -0.0000
 15 O      8.5111     8.0000    -0.5111     1.7380     1.7380     0.0000
 16 C      5.9217     6.0000     0.0783     3.6054     3.6054     0.0000
 17 C      5.9256     6.0000     0.0744     3.6559     3.6559    -0.0000
 18 C      6.2932     6.0000    -0.2932     3.6870     3.6870     0.0000
 19 C      6.0182     6.0000    -0.0182     3.6612     3.6612    -0.0000
 20 O      8.5273     8.0000    -0.5273     1.7667     1.7667    -0.0000
 21 H      0.8511     1.0000     0.1489     0.9350     0.9350    -0.0000
 22 O      8.6054     8.0000    -0.6054     1.7416     1.7416    -0.0000
 23 H      0.8591     1.0000     0.1409     0.9399     0.9399    -0.0000
 24 H      0.8523     1.0000     0.1477     0.9399     0.9399     0.0000
 25 H      0.8133     1.0000     0.1867     0.9397     0.9397     0.0000
 26 H      0.8418     1.0000     0.1582     0.9288     0.9288    -0.0000
 27 H      0.8675     1.0000     0.1325     0.9293     0.9293    -0.0000
 28 H      0.6366     1.0000     0.3634     0.8335     0.8335    -0.0000

  Mayer bond orders larger than 0.100000
B(  0-C ,  1-C ) :   0.9332 B(  0-C ,  4-O ) :   0.9235 B(  0-C ,  5-H ) :   0.9166 
B(  0-C , 15-O ) :   0.8234 B(  1-C ,  2-C ) :   0.9518 B(  1-C ,  6-H ) :   0.9336 
B(  1-C ,  7-H ) :   0.9359 B(  2-C ,  3-C ) :   0.9561 B(  2-C ,  8-H ) :   0.9447 
B(  2-C ,  9-H ) :   0.9434 B(  3-C ,  4-O ) :   0.8296 B(  3-C , 10-H ) :   0.9346 
B(  3-C , 11-H ) :   0.9396 B( 12-C , 13-H ) :   0.9269 B( 12-C , 14-H ) :   0.9120 
B( 12-C , 15-O ) :   0.8525 B( 12-C , 16-C ) :   0.8949 B( 16-C , 17-C ) :   0.9082 
B( 16-C , 20-O ) :   0.8771 B( 16-C , 21-H ) :   0.9191 B( 17-C , 18-C ) :   0.9219 
B( 17-C , 22-O ) :   0.8881 B( 17-C , 23-H ) :   0.9365 B( 18-C , 19-C ) :   0.9446 
B( 18-C , 24-H ) :   0.9377 B( 18-C , 25-H ) :   0.9128 B( 19-C , 20-O ) :   0.8346 
B( 19-C , 26-H ) :   0.9337 B( 19-C , 27-H ) :   0.9381 B( 22-O , 28-H ) :   0.7956 


-------
TIMINGS
-------

Total SCF time: 0 days 0 hours 2 min 17 sec 

Total time                  ....     137.375 sec
Sum of individual times     ....     108.597 sec  ( 79.1%)

Fock matrix formation       ....      91.889 sec  ( 66.9%)
  XC integration            ....      39.756 sec  ( 43.3% of F)
    Basis function eval.    ....       1.562 sec  (  3.9% of XC)
    Density eval.           ....       1.155 sec  (  2.9% of XC)
    XC-Functional eval.     ....       0.519 sec  (  1.3% of XC)
    XC-Potential eval.      ....       0.650 sec  (  1.6% of XC)
Diagonalization             ....       2.903 sec  (  2.1%)
Density matrix formation    ....       0.006 sec  (  0.0%)
Population analysis         ....       4.209 sec  (  3.1%)
Initial guess               ....       0.258 sec  (  0.2%)
Orbital Transformation      ....       0.000 sec  (  0.0%)
Orbital Orthonormalization  ....       0.004 sec  (  0.0%)
DIIS solution               ....       0.001 sec  (  0.0%)
SOSCF solution              ....       0.243 sec  (  0.2%)
Grid generation             ....       9.088 sec  (  6.6%)

-------------------------   --------------------
FINAL SINGLE POINT ENERGY      -652.861237020991
-------------------------   --------------------

                                *** OPTIMIZATION RUN DONE ***

                            ***************************************
                            *     ORCA property calculations      *
                            ***************************************

                                    ---------------------
                                    Active property flags
                                    ---------------------
   (+) Dipole Moment


------------------------------------------------------------------------------
                       ORCA ELECTRIC PROPERTIES CALCULATION
------------------------------------------------------------------------------

Dipole Moment Calculation                       ... on
Quadrupole Moment Calculation                   ... off
Polarizability Calculation                      ... off
GBWName                                         ... project_8048/ensemble_195_120.gbw
Electron density file                           ... project_8048/ensemble_195_120.scfp
The origin for moment calculation is the CENTER OF MASS  = (-42.932052, 48.498358 87.335229)

-------------
DIPOLE MOMENT
-------------
                                X             Y             Z
Electronic contribution:     -3.70498      -2.97412      -1.16738
Nuclear contribution   :      4.57329       3.95103       1.10329
                        -----------------------------------------
Total Dipole Moment    :      0.86831       0.97691      -0.06409
                        -----------------------------------------
Magnitude (a.u.)       :      1.30859
Magnitude (Debye)      :      3.32617



--------------------
Rotational spectrum 
--------------------
 
Rotational constants in cm-1:     0.057153     0.014059     0.013601 
Rotational constants in MHz :  1713.413728   421.472718   407.752699 

 Dipole components along the rotational axes: 
x,y,z [a.u.] :    -1.198449    -0.525319    -0.013067 
x,y,z [Debye]:    -3.046215    -1.335255    -0.033215 

 

Timings for individual modules:

Sum of individual times         ...     1999.197 sec (=  33.320 min)
GTO integral calculation        ...       62.192 sec (=   1.037 min)   3.1 %
SCF iterations                  ...     1700.116 sec (=  28.335 min)  85.0 %
SCF Gradient evaluation         ...      192.367 sec (=   3.206 min)   9.6 %
Geometry relaxation             ...       44.522 sec (=   0.742 min)   2.2 %
                             ****ORCA TERMINATED NORMALLY****
TOTAL RUN TIME: 0 days 0 hours 35 minutes 4 seconds 916 msec
