
                                 *****************
                                 * O   R   C   A *
                                 *****************

           --- An Ab Initio, DFT and Semiempirical electronic structure package ---

                  #######################################################
                  #                        -***-                        #
                  #          Department of theory and spectroscopy      #
                  #               Directorship: Frank Neese             #
                  #        Max Planck Institute fuer Kohlenforschung    #
                  #                Kaiser Wilhelm Platz 1               #
                  #                 D-45470 Muelheim/Ruhr               #
                  #                      Germany                        #
                  #                                                     #
                  #                  All rights reserved                #
                  #                        -***-                        #
                  #######################################################


                         Program Version 4.2.0 -  RELEASE  -


 With contributions from (in alphabetic order):
   Daniel Aravena         : Magnetic Suceptibility
   Michael Atanasov       : Ab Initio Ligand Field Theory (pilot matlab implementation)
   Alexander A. Auer      : GIAO ZORA, VPT2
   Ute Becker             : Parallelization
   Giovanni Bistoni       : ED, misc. LED, open-shell LED, HFLED
   Martin Brehm           : Molecular dynamics
   Dmytro Bykov           : SCF Hessian
   Vijay G. Chilkuri      : MRCI spin determinant printing, contributions to CSF-ICE
   Dipayan Datta          : RHF DLPNO-CCSD density
   Achintya Kumar Dutta   : EOM-CC, STEOM-CC
   Dmitry Ganyushin       : Spin-Orbit,Spin-Spin,Magnetic field MRCI
   Miquel Garcia          : C-PCM Hessian, Gaussian charge scheme
   Yang Guo               : DLPNO-NEVPT2, CIM, IAO-localization
   Andreas Hansen         : Spin unrestricted coupled pair/coupled cluster methods
   Benjamin Helmich-Paris : CASSCF linear response (MC-RPA)
   Lee Huntington         : MR-EOM, pCC
   Robert Izsak           : Overlap fitted RIJCOSX, COSX-SCS-MP3, EOM
   Christian Kollmar      : KDIIS, OOCD, Brueckner-CCSD(T), CCSD density
   Simone Kossmann        : Meta GGA functionals, TD-DFT gradient, OOMP2, MP2 Hessian
   Martin Krupicka        : AUTO-CI
   Lucas Lang             : DCDCAS
   Dagmar Lenk            : GEPOL surface, SMD
   Dimitrios Liakos       : Extrapolation schemes; Compound Job, initial MDCI parallelization
   Dimitrios Manganas     : Further ROCIS development; embedding schemes
   Dimitrios Pantazis     : SARC Basis sets
   Taras Petrenko         : DFT Hessian,TD-DFT gradient, ASA, ECA, R-Raman, ABS, FL, XAS/XES, NRVS
   Peter Pinski           : DLPNO-MP2, DLPNO-MP2 Gradient
   Christoph Reimann      : Effective Core Potentials
   Marius Retegan         : Local ZFS, SOC
   Christoph Riplinger    : Optimizer, TS searches, QM/MM, DLPNO-CCSD(T), (RO)-DLPNO pert. Triples
   Tobias Risthaus        : Range-separated hybrids, TD-DFT gradient, RPA, STAB
   Michael Roemelt        : Original ROCIS implementation
   Masaaki Saitow         : Open-shell DLPNO-CCSD energy and density
   Barbara Sandhoefer     : DKH picture change effects
   Avijit Sen             : IP-ROCIS
   Kantharuban Sivalingam : CASSCF convergence, NEVPT2, FIC-MRCI
   Bernardo de Souza      : ESD, SOC TD-DFT
   Georgi Stoychev        : AutoAux, RI-MP2 NMR
   Willem Van den Heuvel  : Paramagnetic NMR
   Boris Wezisla          : Elementary symmetry handling
   Frank Wennmohs         : Technical directorship


 We gratefully acknowledge several colleagues who have allowed us to
 interface, adapt or use parts of their codes:
   Stefan Grimme, W. Hujo, H. Kruse,             : VdW corrections, initial TS optimization,
                  C. Bannwarth                     DFT functionals, gCP, sTDA/sTD-DF
   Ed Valeev, F. Pavosevic, A. Kumar             : LibInt (2-el integral package), F12 methods
   Garnet Chan, S. Sharma, J. Yang, R. Olivares  : DMRG
   Ulf Ekstrom                                   : XCFun DFT Library
   Mihaly Kallay                                 : mrcc  (arbitrary order and MRCC methods)
   Andreas Klamt, Michael Diedenhofen            : otool_cosmo (COSMO solvation model)
   Jiri Pittner, Ondrej Demel                    : Mk-CCSD
   Frank Weinhold                                : gennbo (NPA and NBO analysis)
   Christopher J. Cramer and Donald G. Truhlar   : smd solvation model
   Lars Goerigk                                  : TD-DFT with DH, B97 family of functionals
   V. Asgeirsson, H. Jonsson                     : NEB implementation
   FAccTs GmbH                                   : IRC, NEB, NEB-TS, Multilevel, MM, QM/MM, CI optimization
   S Lehtola, MJT Oliveira, MAL Marques          : LibXC Library


 Your calculation uses the libint2 library for the computation of 2-el integrals
 For citations please refer to: http://libint.valeyev.net

 Your ORCA version has been built with support for libXC version: 4.2.3
 For citations please refer to: https://tddft.org/programs/libxc/

 This ORCA versions uses:
   CBLAS   interface :  Fast vector & matrix operations
   LAPACKE interface :  Fast linear algebra routines
   SCALAPACK package :  Parallel linear algebra routines


----- Orbital basis set information -----
Your calculation utilizes the basis: 6-31G
   H-He, Li-Ne : W. J. Hehre, R. Ditchfield and J.A. Pople, J. Chem. Phys. 56, 2257 (1972).
                 Note: He and Ne are unpublished basis sets taken from the Gaussian program.
                 Note: Li and B from J. D. Dill and J. A. Pople, J. Chem. Phys. 62, 2921 (1975).
   Na - Ar     : M. M. Francl, W. J. Pietro, W. J. Hehre, J. S. Binkley, M. S. Gordon, 
                 D. J. DeFrees and J. A. Pople, J. Chem. Phys. 77, 3654 (1982).
   K - Zn      : V. A. Rassolov, J. A. Pople, M. A. Ratner, and T. L. Windus, J. Chem. Phys. 109, 1223 (1998).

================================================================================
                                        WARNINGS
                       Please study these warnings very carefully!
================================================================================


WARNING: Geometry Optimization
  ===> : Switching off AutoStart
         For restart on a previous wavefunction, please use MOREAD

INFO   : the flag for use of LIBINT has been found!

================================================================================
                                       INPUT FILE
================================================================================
NAME = project_8050/ensemble_180_150.inp
|  1> # Test redundant internal optimization
|  2> #
|  3> ! RKS B3LYP  Opt TightSCF SmallPrint
|  4> 
|  5> %basis
|  6>         Basis "6-31G"
|  7> end
|  8> 
|  9> %geom
| 10> Constraints
| 11> { D 4  0  15  12  180.0   C } # D for Dihedral angle
| 12> { D 0  15  12  16  150.0   C } # D for Dihedral angle
| 13> { D 0  4  3  2   C } # D for Dihedral angle
| 14> { D 4  3  2  1   C } # D for Dihedral angle
| 15> { D 3  2  1  0   C } # D for Dihedral angle
| 16> { D 2  1  0  4   C } # D for Dihedral angle
| 17> { D 1  0  4  3   C } # D for Dihedral angle
| 18> { D 16  20  19  18   C } # D for Dihedral angle
| 19> { D 20  19  18  17   C } # D for Dihedral angle
| 20> { D 19  18  17  16   C } # D for Dihedral angle
| 21> { D 18  17  16  20   C } # D for Dihedral angle
| 22> { D 17  16  20  19   C } # D for Dihedral angle
| 23> { D 15  12  16  20   C } # D for Dihedral angle
| 24> end
| 25> end
| 26> 
| 27> 
| 28> #%pal 
| 29> #nprocs 8
| 30> #end
| 31> 
| 32> * xyz 0 1
| 33> C  -21.048   26.222   46.251
| 34> C  -20.361   27.558   45.944
| 35> C  -20.329   28.222   47.341
| 36> C  -20.110   27.022   48.296
| 37> O  -20.473   25.807   47.535
| 38> H  -20.833   25.428   45.533
| 39> H  -19.344   27.382   45.576
| 40> H  -20.898   28.157   45.201
| 41> H  -19.543   28.978   47.434
| 42> H  -21.289   28.710   47.548
| 43> H  -20.733   27.082   49.195
| 44> H  -19.064   26.913   48.597
| 45> C  -23.309   26.834   45.072
| 46> H  -23.337   27.929   45.026
| 47> H  -22.767   26.467   44.190
| 48> O  -22.586   26.394   46.375
| 49> C  -24.767   26.303   44.986
| 50> C  -25.644   26.904   46.090
| 51> C  -25.956   28.306   45.514
| 52> C  -26.062   28.045   43.991
| 53> O  -25.400   26.747   43.740
| 54> H  -24.750   25.212   44.965
| 55> O  -26.946   26.073   46.247
| 56> H  -25.143   26.946   47.063
| 57> H  -26.871   28.741   45.928
| 58> H  -25.130   28.994   45.732
| 59> H  -25.568   28.821   43.397
| 60> H  -27.098   27.949   43.655
| 61> H  -27.466   26.018   45.283
| 62> *
| 63> 
| 64>                          ****END OF INPUT****
================================================================================

                       *****************************
                       * Geometry Optimization Run *
                       *****************************

Geometry optimization settings:
Update method            Update   .... BFGS
Choice of coordinates    CoordSys .... Z-matrix Internals
Initial Hessian          InHess   .... Almoef's Model

Convergence Tolerances:
Energy Change            TolE     ....  5.0000e-06 Eh
Max. Gradient            TolMAXG  ....  3.0000e-04 Eh/bohr
RMS Gradient             TolRMSG  ....  1.0000e-04 Eh/bohr
Max. Displacement        TolMAXD  ....  4.0000e-03 bohr
RMS Displacement         TolRMSD  ....  2.0000e-03 bohr
Strict Convergence                ....  False
------------------------------------------------------------------------------
                        ORCA OPTIMIZATION COORDINATE SETUP
------------------------------------------------------------------------------

The optimization will be done in new redundant internal coordinates
Making redundant internal coordinates   ...  (new redundants) done
Evaluating the initial hessian          ...  (Almloef) done
Evaluating the coordinates              ...  done
Calculating the B-matrix                .... done
Calculating the G-matrix                .... done
Diagonalizing the G-matrix              .... done
Imposing constraints:
 Iter   0:  RMS(Cart)=    0.0001404635 RMS(Int)=    0.0000494328
 Iter   1:  RMS(Cart)=    0.0000695633 RMS(Int)=    0.0000268444
 Iter   2:  RMS(Cart)=    0.0000360334 RMS(Int)=    0.0000159330
 Iter   3:  RMS(Cart)=    0.0000197091 RMS(Int)=    0.0000104631
 Iter   4:  RMS(Cart)=    0.0000114409 RMS(Int)=    0.0000075992
 Iter   5:  RMS(Cart)=    0.0000070485 RMS(Int)=    0.0000060401
 Iter   6:  RMS(Cart)=    0.0000045967 RMS(Int)=    0.0000051624
 Iter   7:  RMS(Cart)=    0.0000031670 RMS(Int)=    0.0000046469
 Iter   8:  RMS(Cart)=    0.0000023054 RMS(Int)=    0.0000043240
 Iter   9:  RMS(Cart)=    0.0000017745 RMS(Int)=    0.0000041028
 Iter  10:  RMS(Cart)=    0.0000014421 RMS(Int)=    0.0000039356
 Iter  11:  RMS(Cart)=    0.0000012302 RMS(Int)=    0.0000037976
 Iter  12:  RMS(Cart)=    0.0000010914 RMS(Int)=    0.0000036763
 Iter  13:  RMS(Cart)=    0.0000009968 RMS(Int)=    0.0000035650
 Iter  14:  RMS(Cart)=    0.0000009289 RMS(Int)=    0.0000034603
 Iter  15:  RMS(Cart)=    0.0000008774 RMS(Int)=    0.0000033605
 Iter  16:  RMS(Cart)=    0.0000008362 RMS(Int)=    0.0000032646
 Iter  17:  RMS(Cart)=    0.0000008016 RMS(Int)=    0.0000031722
 Iter  18:  RMS(Cart)=    0.0000007715 RMS(Int)=    0.0000030829
 Iter  19:  RMS(Cart)=    0.0000007444 RMS(Int)=    0.0000029964
 Iter  20:  RMS(Cart)=    0.0000007195 RMS(Int)=    0.0000029128
 Iter  21:  RMS(Cart)=    0.0000006964 RMS(Int)=    0.0000028317
 Iter  22:  RMS(Cart)=    0.0000006746 RMS(Int)=    0.0000027532
 Iter  23:  RMS(Cart)=    0.0000006539 RMS(Int)=    0.0000026771
 Iter  24:  RMS(Cart)=    0.0000006341 RMS(Int)=    0.0000026033
 Iter  25:  RMS(Cart)=    0.0000006151 RMS(Int)=    0.0000025319
 Iter  26:  RMS(Cart)=    0.0000005968 RMS(Int)=    0.0000024626
 Iter  27:  RMS(Cart)=    0.0000005792 RMS(Int)=    0.0000023954
 Iter  28:  RMS(Cart)=    0.0000005623 RMS(Int)=    0.0000023303
 Iter  29:  RMS(Cart)=    0.0000005458 RMS(Int)=    0.0000022672
 Iter  30:  RMS(Cart)=    0.0000005300 RMS(Int)=    0.0000022060
 Iter  31:  RMS(Cart)=    0.0000005146 RMS(Int)=    0.0000021467
 Iter  32:  RMS(Cart)=    0.0000004997 RMS(Int)=    0.0000020892
 Iter  33:  RMS(Cart)=    0.0000004853 RMS(Int)=    0.0000020334
 Iter  34:  RMS(Cart)=    0.0000004714 RMS(Int)=    0.0000019793
 Iter  35:  RMS(Cart)=    0.0000004579 RMS(Int)=    0.0000019268
 Iter  36:  RMS(Cart)=    0.0000004448 RMS(Int)=    0.0000018759
 Iter  37:  RMS(Cart)=    0.0000004321 RMS(Int)=    0.0000018265
 Iter  38:  RMS(Cart)=    0.0000004198 RMS(Int)=    0.0000017786
 Iter  39:  RMS(Cart)=    0.0000004078 RMS(Int)=    0.0000017321
 Iter  40:  RMS(Cart)=    0.0000003963 RMS(Int)=    0.0000016870
 Iter  41:  RMS(Cart)=    0.0000003850 RMS(Int)=    0.0000016432
 Iter  42:  RMS(Cart)=    0.0000003742 RMS(Int)=    0.0000016008
 Iter  43:  RMS(Cart)=    0.0000003636 RMS(Int)=    0.0000015596
 Iter  44:  RMS(Cart)=    0.0000003534 RMS(Int)=    0.0000015196
 Iter  45:  RMS(Cart)=    0.0000003435 RMS(Int)=    0.0000014807
 Iter  46:  RMS(Cart)=    0.0000003339 RMS(Int)=    0.0000014431
 Iter  47:  RMS(Cart)=    0.0000003245 RMS(Int)=    0.0000014065
 Iter  48:  RMS(Cart)=    0.0000003155 RMS(Int)=    0.0000013710
 Iter  49:  RMS(Cart)=    0.0000003067 RMS(Int)=    0.0000013365
 Iter  50:  RMS(Cart)=    0.0000002982 RMS(Int)=    0.0000013030
 Iter  51:  RMS(Cart)=    0.0000002899 RMS(Int)=    0.0000012705
 Iter  52:  RMS(Cart)=    0.0000002819 RMS(Int)=    0.0000012390
 Iter  53:  RMS(Cart)=    0.0000002741 RMS(Int)=    0.0000012083
 Iter  54:  RMS(Cart)=    0.0000002666 RMS(Int)=    0.0000011785
 Iter  55:  RMS(Cart)=    0.0000002593 RMS(Int)=    0.0000011496
 Iter  56:  RMS(Cart)=    0.0000002522 RMS(Int)=    0.0000011215
 Iter  57:  RMS(Cart)=    0.0000002453 RMS(Int)=    0.0000010943
 Iter  58:  RMS(Cart)=    0.0000002386 RMS(Int)=    0.0000010678
 Iter  59:  RMS(Cart)=    0.0000002321 RMS(Int)=    0.0000010420
 Iter  60:  RMS(Cart)=    0.0000002258 RMS(Int)=    0.0000010170
 Iter  61:  RMS(Cart)=    0.0000002196 RMS(Int)=    0.0000009927
 Iter  62:  RMS(Cart)=    0.0000002137 RMS(Int)=    0.0000009691
 Iter  63:  RMS(Cart)=    0.0000002079 RMS(Int)=    0.0000009461
 Iter  64:  RMS(Cart)=    0.0000002023 RMS(Int)=    0.0000009238
 Iter  65:  RMS(Cart)=    0.0000001969 RMS(Int)=    0.0000009021
 Iter  66:  RMS(Cart)=    0.0000001916 RMS(Int)=    0.0000008811
 Iter  67:  RMS(Cart)=    0.0000001865 RMS(Int)=    0.0000008606
 Iter  68:  RMS(Cart)=    0.0000001815 RMS(Int)=    0.0000008407
 Iter  69:  RMS(Cart)=    0.0000001767 RMS(Int)=    0.0000008213
 Iter  70:  RMS(Cart)=    0.0000001720 RMS(Int)=    0.0000008025
 Iter  71:  RMS(Cart)=    0.0000001674 RMS(Int)=    0.0000007842
 Iter  72:  RMS(Cart)=    0.0000001630 RMS(Int)=    0.0000007664
 Iter  73:  RMS(Cart)=    0.0000001587 RMS(Int)=    0.0000007491
 Iter  74:  RMS(Cart)=    0.0000001545 RMS(Int)=    0.0000007323
 Iter  75:  RMS(Cart)=    0.0000001505 RMS(Int)=    0.0000007159
 Iter  76:  RMS(Cart)=    0.0000001465 RMS(Int)=    0.0000007000
 Iter  77:  RMS(Cart)=    0.0000001427 RMS(Int)=    0.0000006845
 Iter  78:  RMS(Cart)=    0.0000001390 RMS(Int)=    0.0000006694
 Iter  79:  RMS(Cart)=    0.0000001353 RMS(Int)=    0.0000006548
 Iter  80:  RMS(Cart)=    0.0000001318 RMS(Int)=    0.0000006405
 Iter  81:  RMS(Cart)=    0.0000001284 RMS(Int)=    0.0000006267
 Iter  82:  RMS(Cart)=    0.0000001251 RMS(Int)=    0.0000006131
 Iter  83:  RMS(Cart)=    0.0000001219 RMS(Int)=    0.0000006000
 Iter  84:  RMS(Cart)=    0.0000001187 RMS(Int)=    0.0000005872
 Iter  85:  RMS(Cart)=    0.0000001157 RMS(Int)=    0.0000005748
 Iter  86:  RMS(Cart)=    0.0000001127 RMS(Int)=    0.0000005626
 Iter  87:  RMS(Cart)=    0.0000001099 RMS(Int)=    0.0000005508
 Iter  88:  RMS(Cart)=    0.0000001071 RMS(Int)=    0.0000005394
 Iter  89:  RMS(Cart)=    0.0000001043 RMS(Int)=    0.0000005282
 Iter  90:  RMS(Cart)=    0.0000001017 RMS(Int)=    0.0000005173
 Iter  91:  RMS(Cart)=    0.0000000991 RMS(Int)=    0.0000005067
 Iter  92:  RMS(Cart)=    0.0000000966 RMS(Int)=    0.0000004963
 Iter  93:  RMS(Cart)=    0.0000000942 RMS(Int)=    0.0000004863
 Iter  94:  RMS(Cart)=    0.0000000918 RMS(Int)=    0.0000004765
 Iter  95:  RMS(Cart)=    0.0000000896 RMS(Int)=    0.0000004669
 Iter  96:  RMS(Cart)=    0.0000000873 RMS(Int)=    0.0000004576
 Iter  97:  RMS(Cart)=    0.0000000851 RMS(Int)=    0.0000004485
 Iter  98:  RMS(Cart)=    0.0000000830 RMS(Int)=    0.0000004397
 Iter  99:  RMS(Cart)=    0.0000000810 RMS(Int)=    0.0000004311
 RMS(Cart) too big - taking linear step, building new B-matrix and trying again
Imposing constraints:
 Iter   0:  RMS(Cart)=    0.0000695638 RMS(Int)=    0.0000268443
 Iter   1:  RMS(Cart)=    0.0000360338 RMS(Int)=    0.0000159328
 Iter   2:  RMS(Cart)=    0.0000197093 RMS(Int)=    0.0000104629
 Iter   3:  RMS(Cart)=    0.0000114411 RMS(Int)=    0.0000075988
 Iter   4:  RMS(Cart)=    0.0000070486 RMS(Int)=    0.0000060396
 Iter   5:  RMS(Cart)=    0.0000045967 RMS(Int)=    0.0000051618
 Iter   6:  RMS(Cart)=    0.0000031670 RMS(Int)=    0.0000046464
 Iter   7:  RMS(Cart)=    0.0000023053 RMS(Int)=    0.0000043234
 Iter   8:  RMS(Cart)=    0.0000017744 RMS(Int)=    0.0000041022
 Iter   9:  RMS(Cart)=    0.0000014420 RMS(Int)=    0.0000039350
 Iter  10:  RMS(Cart)=    0.0000012301 RMS(Int)=    0.0000037971
 Iter  11:  RMS(Cart)=    0.0000010913 RMS(Int)=    0.0000036757
 Iter  12:  RMS(Cart)=    0.0000009967 RMS(Int)=    0.0000035644
 Iter  13:  RMS(Cart)=    0.0000009288 RMS(Int)=    0.0000034597
 Iter  14:  RMS(Cart)=    0.0000008773 RMS(Int)=    0.0000033600
 Iter  15:  RMS(Cart)=    0.0000008361 RMS(Int)=    0.0000032641
 Iter  16:  RMS(Cart)=    0.0000008015 RMS(Int)=    0.0000031717
 Iter  17:  RMS(Cart)=    0.0000007713 RMS(Int)=    0.0000030824
 Iter  18:  RMS(Cart)=    0.0000007443 RMS(Int)=    0.0000029960
 Iter  19:  RMS(Cart)=    0.0000007194 RMS(Int)=    0.0000029123
 Iter  20:  RMS(Cart)=    0.0000006963 RMS(Int)=    0.0000028313
 Iter  21:  RMS(Cart)=    0.0000006745 RMS(Int)=    0.0000027527
 Iter  22:  RMS(Cart)=    0.0000006537 RMS(Int)=    0.0000026767
 Iter  23:  RMS(Cart)=    0.0000006340 RMS(Int)=    0.0000026029
 Iter  24:  RMS(Cart)=    0.0000006150 RMS(Int)=    0.0000025315
 Iter  25:  RMS(Cart)=    0.0000005967 RMS(Int)=    0.0000024622
 Iter  26:  RMS(Cart)=    0.0000005791 RMS(Int)=    0.0000023951
 Iter  27:  RMS(Cart)=    0.0000005622 RMS(Int)=    0.0000023300
 Iter  28:  RMS(Cart)=    0.0000005457 RMS(Int)=    0.0000022669
 Iter  29:  RMS(Cart)=    0.0000005299 RMS(Int)=    0.0000022057
 Iter  30:  RMS(Cart)=    0.0000005145 RMS(Int)=    0.0000021464
 Iter  31:  RMS(Cart)=    0.0000004997 RMS(Int)=    0.0000020889
 Iter  32:  RMS(Cart)=    0.0000004853 RMS(Int)=    0.0000020331
 Iter  33:  RMS(Cart)=    0.0000004713 RMS(Int)=    0.0000019790
 Iter  34:  RMS(Cart)=    0.0000004578 RMS(Int)=    0.0000019265
 Iter  35:  RMS(Cart)=    0.0000004447 RMS(Int)=    0.0000018756
 Iter  36:  RMS(Cart)=    0.0000004320 RMS(Int)=    0.0000018262
 Iter  37:  RMS(Cart)=    0.0000004197 RMS(Int)=    0.0000017783
 Iter  38:  RMS(Cart)=    0.0000004078 RMS(Int)=    0.0000017318
 Iter  39:  RMS(Cart)=    0.0000003962 RMS(Int)=    0.0000016867
 Iter  40:  RMS(Cart)=    0.0000003850 RMS(Int)=    0.0000016430
 Iter  41:  RMS(Cart)=    0.0000003741 RMS(Int)=    0.0000016005
 Iter  42:  RMS(Cart)=    0.0000003636 RMS(Int)=    0.0000015593
 Iter  43:  RMS(Cart)=    0.0000003533 RMS(Int)=    0.0000015193
 Iter  44:  RMS(Cart)=    0.0000003434 RMS(Int)=    0.0000014805
 Iter  45:  RMS(Cart)=    0.0000003338 RMS(Int)=    0.0000014428
 Iter  46:  RMS(Cart)=    0.0000003245 RMS(Int)=    0.0000014063
 Iter  47:  RMS(Cart)=    0.0000003154 RMS(Int)=    0.0000013708
 Iter  48:  RMS(Cart)=    0.0000003066 RMS(Int)=    0.0000013363
 Iter  49:  RMS(Cart)=    0.0000002981 RMS(Int)=    0.0000013028
 Iter  50:  RMS(Cart)=    0.0000002899 RMS(Int)=    0.0000012703
 Iter  51:  RMS(Cart)=    0.0000002819 RMS(Int)=    0.0000012388
 Iter  52:  RMS(Cart)=    0.0000002741 RMS(Int)=    0.0000012081
 Iter  53:  RMS(Cart)=    0.0000002665 RMS(Int)=    0.0000011784
 Iter  54:  RMS(Cart)=    0.0000002592 RMS(Int)=    0.0000011495
 Iter  55:  RMS(Cart)=    0.0000002521 RMS(Int)=    0.0000011214
 Iter  56:  RMS(Cart)=    0.0000002452 RMS(Int)=    0.0000010941
 Iter  57:  RMS(Cart)=    0.0000002385 RMS(Int)=    0.0000010676
 Iter  58:  RMS(Cart)=    0.0000002320 RMS(Int)=    0.0000010419
 Iter  59:  RMS(Cart)=    0.0000002257 RMS(Int)=    0.0000010169
 Iter  60:  RMS(Cart)=    0.0000002196 RMS(Int)=    0.0000009926
CONVERGED
Small eigenvalue found = 7.682e-03
Small eigenvalue found = 1.163e-02
Small eigenvalue found = 1.833e-02
The first mode is                       ....   91
The number of degrees of freedom        ....   81
Storing new coordinates                 .... done

    -----------------------------------------------------------------
                    Redundant Internal Coordinates


    -----------------------------------------------------------------
         Definition                    Initial Value    Approx d2E/dq
    -----------------------------------------------------------------
      1. B(C   1,C   0)                  1.5333         0.369027   
      2. B(C   2,C   1)                  1.5471         0.350825   
      3. B(C   3,C   2)                  1.5492         0.348147   
      4. B(O   4,C   0)                  1.4668         0.422031   
      5. B(O   4,C   3)                  1.4789         0.403699   
      6. B(H   5,C   0)                  1.0919         0.357632   
      7. B(H   6,C   1)                  1.0958         0.352561   
      8. B(H   7,C   1)                  1.0951         0.353431   
      9. B(H   8,C   2)                  1.0945         0.354166   
     10. B(H   9,C   2)                  1.0966         0.351438   
     11. B(H  10,C   3)                  1.0954         0.353010   
     12. B(H  11,C   3)                  1.0939         0.354989   
     13. B(H  13,C  12)                  1.0963         0.351831   
     14. B(H  14,C  12)                  1.0984         0.349219   
     15. B(O  15,C   0)                  1.5525         0.307993   
     16. B(O  15,C  12)                  1.5537         0.306636   
     17. B(C  16,C  12)                  1.5541         0.341965   
     18. B(C  17,C  16)                  1.5327         0.369898   
     19. B(C  18,C  17)                  1.5475         0.350327   
     20. B(C  19,C  18)                  1.5488         0.348602   
     21. B(O  20,C  16)                  1.4664         0.422647   
     22. B(O  20,C  19)                  1.4785         0.404234   
     23. B(H  21,C  16)                  1.0913         0.358339   
     24. B(O  22,C  17)                  1.5526         0.307990   
     25. B(H  23,C  17)                  1.0952         0.353268   
     26. B(H  24,C  18)                  1.0945         0.354246   
     27. B(H  25,C  18)                  1.0969         0.351114   
     28. B(H  26,C  19)                  1.0950         0.353532   
     29. B(H  27,C  19)                  1.0933         0.355699   
     30. B(H  28,O  22)                  1.0967         0.314697   
     31. A(O   4,C   0,H   5)          107.0169         0.328541   
     32. A(C   1,C   0,O  15)          111.3059         0.348740   
     33. A(C   1,C   0,O   4)          104.2508         0.367935   
     34. A(O   4,C   0,O  15)          110.4723         0.354548   
     35. A(C   1,C   0,H   5)          114.4405         0.323302   
     36. A(H   5,C   0,O  15)          109.1543         0.312058   
     37. A(C   0,C   1,C   2)          101.6783         0.358729   
     38. A(C   2,C   1,H   7)          112.8333         0.320016   
     39. A(C   2,C   1,H   6)          110.6702         0.319888   
     40. A(C   0,C   1,H   6)          110.0681         0.322546   
     41. A(H   6,C   1,H   7)          108.3679         0.289027   
     42. A(C   0,C   1,H   7)          113.1246         0.322677   
     43. A(C   1,C   2,H   8)          112.8313         0.320125   
     44. A(C   1,C   2,C   3)          103.1285         0.355196   
     45. A(C   1,C   2,H   9)          110.0795         0.319721   
     46. A(C   3,C   2,H   9)          110.6147         0.319321   
     47. A(C   3,C   2,H   8)          112.4033         0.319725   
     48. A(H   8,C   2,H   9)          107.7731         0.288977   
     49. A(O   4,C   3,H  10)          109.1301         0.325449   
     50. A(C   2,C   3,H  10)          112.5254         0.319554   
     51. A(C   2,C   3,O   4)          106.5268         0.361529   
     52. A(O   4,C   3,H  11)          107.1239         0.325748   
     53. A(H  10,C   3,H  11)          108.8727         0.289284   
     54. A(C   2,C   3,H  11)          112.4569         0.319846   
     55. A(C   0,O   4,C   3)          108.3129         0.371320   
     56. A(H  14,C  12,C  16)          107.7262         0.318061   
     57. A(H  13,C  12,H  14)          108.2186         0.288391   
     58. A(H  13,C  12,O  15)          109.2652         0.311011   
     59. A(H  14,C  12,O  15)          110.4356         0.310637   
     60. A(O  15,C  12,C  16)          112.7189         0.344046   
     61. A(H  13,C  12,C  16)          108.3532         0.318447   
     62. A(C   0,O  15,C  12)          115.1734         0.336028   
     63. A(C  12,C  16,C  17)          111.2842         0.357315   
     64. A(C  12,C  16,O  20)          110.3985         0.363259   
     65. A(C  17,C  16,O  20)          104.2598         0.368176   
     66. A(C  12,C  16,H  21)          109.1487         0.319401   
     67. A(C  17,C  16,H  21)          114.5054         0.323532   
     68. A(O  20,C  16,H  21)          107.0407         0.328728   
     69. A(C  16,C  17,C  18)          101.6836         0.358786   
     70. A(C  16,C  17,O  22)          110.0484         0.348878   
     71. A(C  18,C  17,O  22)          110.7006         0.345701   
     72. A(C  16,C  17,H  23)          113.1546         0.322777   
     73. A(C  18,C  17,H  23)          112.8407         0.319918   
     74. A(O  22,C  17,H  23)          108.3190         0.311438   
     75. A(C  17,C  18,C  19)          103.1288         0.355189   
     76. A(C  17,C  18,H  24)          112.8206         0.320063   
     77. A(C  19,C  18,H  24)          112.4401         0.319805   
     78. A(C  17,C  18,H  25)          110.0268         0.319599   
     79. A(C  19,C  18,H  25)          110.6504         0.319341   
     80. A(H  24,C  18,H  25)          107.7636         0.288945   
     81. A(C  18,C  19,O  20)          106.5125         0.361691   
     82. A(C  18,C  19,H  26)          112.5269         0.319699   
     83. A(O  20,C  19,H  26)          109.1509         0.325599   
     84. A(C  18,C  19,H  27)          112.4473         0.320019   
     85. A(O  20,C  19,H  27)          107.1578         0.325926   
     86. A(H  26,C  19,H  27)          108.8440         0.289442   
     87. A(C  16,O  20,C  19)          108.3508         0.371498   
     88. A(C  17,O  22,H  28)          109.6085         0.303167   
     89. D(H   7,C   1,C   0,H   5)     82.1534         0.010890   
     90. D(C   2,C   1,C   0,O  15)     79.0886         0.010890   
     91. D(H   7,C   1,C   0,O  15)    -42.1860         0.010890   
     92. D(H   6,C   1,C   0,O   4)     77.3246         0.010890   
     93. D(H   6,C   1,C   0,O  15)   -163.5721         0.010890   
     94. D(H   6,C   1,C   0,H   5)    -39.2327         0.010890   
     95. D(H   7,C   1,C   0,O   4)   -161.2893         0.010890   
     96. D(C   2,C   1,C   0,O   4)    -40.0146         0.010890 C 
     97. D(C   2,C   1,C   0,H   5)   -156.5720         0.010890   
     98. D(H   9,C   2,C   1,H   6)    160.0777         0.009912   
     99. D(H   8,C   2,C   1,C   0)    156.5478         0.009912   
    100. D(H   8,C   2,C   1,H   6)     39.6450         0.009912   
    101. D(C   3,C   2,C   1,C   0)     35.0268         0.009912 C 
    102. D(H   8,C   2,C   1,H   7)    -81.9750         0.009912   
    103. D(H   9,C   2,C   1,C   0)    -83.0195         0.009912   
    104. D(C   3,C   2,C   1,H   6)    -81.8760         0.009912   
    105. D(H   9,C   2,C   1,H   7)     38.4577         0.009912   
    106. D(C   3,C   2,C   1,H   7)    156.5040         0.009912   
    107. D(H  11,C   3,C   2,H   9)   -143.4627         0.009774   
    108. D(O   4,C   3,C   2,H   8)   -140.0068         0.009774   
    109. D(O   4,C   3,C   2,H   9)     99.4741         0.009774   
    110. D(H  10,C   3,C   2,C   1)   -137.7432         0.009774   
    111. D(H  10,C   3,C   2,H   8)    100.4467         0.009774   
    112. D(H  10,C   3,C   2,H   9)    -20.0724         0.009774   
    113. D(H  11,C   3,C   2,C   1)     98.8666         0.009774   
    114. D(O   4,C   3,C   2,C   1)    -18.1967         0.009774 C 
    115. D(H  11,C   3,C   2,H   8)    -22.9435         0.009774   
    116. D(C   3,O   4,C   0,C   1)     29.5920         0.014035 C 
    117. D(C   3,O   4,C   0,H   5)    151.2039         0.014035   
    118. D(C   3,O   4,C   0,O  15)    -90.0762         0.014035   
    119. D(C   0,O   4,C   3,C   2)     -6.8730         0.012866 C 
    120. D(C   0,O   4,C   3,H  10)    114.8547         0.012866   
    121. D(C   0,O   4,C   3,H  11)   -127.4270         0.012866   
    122. D(C   0,O  15,C  12,C  16)    150.0000         0.007733 C 
    123. D(C  12,O  15,C   0,O   4)    180.0000         0.007793 C 
    124. D(C  12,O  15,C   0,H   5)    -62.5893         0.007793   
    125. D(C   0,O  15,C  12,H  14)     29.4522         0.007733   
    126. D(C   0,O  15,C  12,H  13)    -89.4727         0.007733   
    127. D(C  12,O  15,C   0,C   1)     64.6822         0.007793   
    128. D(C  17,C  16,C  12,H  13)    -56.3222         0.009459   
    129. D(H  21,C  16,C  12,H  14)     59.4791         0.009459   
    130. D(C  17,C  16,C  12,O  15)     64.7265         0.009459   
    131. D(O  20,C  16,C  12,H  13)     58.9490         0.009459   
    132. D(O  20,C  16,C  12,H  14)    -57.9140         0.009459   
    133. D(O  20,C  16,C  12,O  15)    179.9977         0.009459 C 
    134. D(C  17,C  16,C  12,H  14)   -173.1852         0.009459   
    135. D(H  21,C  16,C  12,H  13)    176.3421         0.009459   
    136. D(H  21,C  16,C  12,O  15)    -62.6092         0.009459   
    137. D(C  18,C  17,C  16,C  12)     79.0512         0.010938   
    138. D(C  18,C  17,C  16,O  20)    -39.9588         0.010938 C 
    139. D(C  18,C  17,C  16,H  21)   -156.5839         0.010938   
    140. D(O  22,C  17,C  16,C  12)   -163.5803         0.010938   
    141. D(O  22,C  17,C  16,O  20)     77.4097         0.010938   
    142. D(O  22,C  17,C  16,H  21)    -39.2155         0.010938   
    143. D(H  23,C  17,C  16,C  12)    -42.2507         0.010938   
    144. D(H  23,C  17,C  16,O  20)   -161.2606         0.010938   
    145. D(H  23,C  17,C  16,H  21)     82.1142         0.010938   
    146. D(H  24,C  18,C  17,H  23)    -81.9188         0.009887   
    147. D(C  19,C  18,C  17,O  22)    -81.8947         0.009887   
    148. D(C  19,C  18,C  17,H  23)    156.5212         0.009887   
    149. D(H  24,C  18,C  17,C  16)    156.5612         0.009887   
    150. D(C  19,C  18,C  17,C  16)     35.0011         0.009887 C 
    151. D(H  24,C  18,C  17,O  22)     39.6653         0.009887   
    152. D(H  25,C  18,C  17,C  16)    -83.0624         0.009887   
    153. D(H  25,C  18,C  17,O  22)    160.0417         0.009887   
    154. D(H  25,C  18,C  17,H  23)     38.4576         0.009887   
    155. D(H  27,C  19,C  18,H  25)   -143.4804         0.009797   
    156. D(O  20,C  19,C  18,H  24)   -140.0137         0.009797   
    157. D(O  20,C  19,C  18,H  25)     99.4293         0.009797   
    158. D(H  26,C  19,C  18,C  17)   -137.7604         0.009797   
    159. D(H  26,C  19,C  18,H  24)    100.4226         0.009797   
    160. D(H  26,C  19,C  18,H  25)    -20.1344         0.009797   
    161. D(H  27,C  19,C  18,C  17)     98.8936         0.009797   
    162. D(O  20,C  19,C  18,C  17)    -18.1967         0.009797 C 
    163. D(H  27,C  19,C  18,H  24)    -22.9233         0.009797   
    164. D(C  19,O  20,C  16,C  12)    -90.0633         0.014076   
    165. D(C  19,O  20,C  16,C  17)     29.5473         0.014076 C 
    166. D(C  19,O  20,C  16,H  21)    151.2503         0.014076   
    167. D(C  16,O  20,C  19,C  18)     -6.8353         0.012899 C 
    168. D(C  16,O  20,C  19,H  26)    114.8975         0.012899   
    169. D(C  16,O  20,C  19,H  27)   -127.3883         0.012899   
    170. D(H  28,O  22,C  17,C  16)    -55.8663         0.007793   
    171. D(H  28,O  22,C  17,C  18)     55.7474         0.007793   
    172. D(H  28,O  22,C  17,H  23)    179.9570         0.007793   
    -----------------------------------------------------------------

Number of atoms                         .... 29
Number of degrees of freedom            .... 172

Time needed for optimization step       :     1.82 sec

         *************************************************************
         *                GEOMETRY OPTIMIZATION CYCLE   1            *
         *************************************************************
---------------------------------
CARTESIAN COORDINATES (ANGSTROEM)
---------------------------------
  C    -21.047917   26.222123   46.250853
  C    -20.361042   27.558226   45.944070
  C    -20.329118   28.221988   47.341177
  C    -20.110019   27.021862   48.295999
  O    -20.472901   25.806942   47.534794
  H    -20.832839   25.428227   45.532761
  H    -19.344019   27.382382   45.576059
  H    -20.898085   28.157292   45.201155
  H    -19.543187   28.978044   47.434307
  H    -21.289166   28.709864   47.548243
  H    -20.733036   27.081667   49.195000
  H    -19.064013   26.912911   48.596997
  C    -23.309012   26.833788   45.071860
  H    -23.337049   27.928782   45.025757
  H    -22.767024   26.466722   44.189880
  O    -22.585942   26.393895   46.374858
  C    -24.767069   26.302914   44.986052
  C    -25.643928   26.904117   46.090049
  C    -25.955856   28.306070   45.513900
  C    -26.062001   28.044898   43.990939
  O    -25.400128   26.746810   43.740043
  H    -24.750161   25.211910   44.965173
  O    -26.945986   26.073247   46.247254
  H    -25.142847   26.946192   47.063004
  H    -26.870787   28.741196   45.927921
  H    -25.129781   28.994027   45.731751
  H    -25.567984   28.820786   43.396807
  H    -27.098036   27.948945   43.655033
  H    -27.466068   26.018174   45.283302

----------------------------
CARTESIAN COORDINATES (A.U.)
----------------------------
  NO LB      ZA    FRAG     MASS         X           Y           Z
   0 C     6.0000    0    12.011  -39.774799   49.552631   87.401447
   1 C     6.0000    0    12.011  -38.476793   52.077499   86.821710
   2 C     6.0000    0    12.011  -38.416466   53.331827   89.461859
   3 C     6.0000    0    12.011  -38.002428   51.063919   91.266211
   4 O     8.0000    0    15.999  -38.688176   48.768053   89.827743
   5 H     1.0000    0     1.008  -39.368361   48.052385   86.044449
   6 H     1.0000    0     1.008  -36.554898   51.745202   86.126270
   7 H     1.0000    0     1.008  -39.491657   53.209571   85.417804
   8 H     1.0000    0     1.008  -36.931272   54.760566   89.637850
   9 H     1.0000    0     1.008  -40.230694   54.253781   89.853157
  10 H     1.0000    0     1.008  -39.179760   51.176933   92.965077
  11 H     1.0000    0     1.008  -36.025763   50.858032   91.835015
  12 C     6.0000    0    12.011  -44.047648   50.708510   85.173472
  13 H     1.0000    0     1.008  -44.100632   52.777750   85.086350
  14 H     1.0000    0     1.008  -43.023440   50.014857   83.506771
  15 O     8.0000    0    15.999  -42.681246   49.877233   87.635781
  16 C     6.0000    0    12.011  -46.802977   49.705303   85.011318
  17 C     6.0000    0    12.011  -48.460000   50.841414   87.097570
  18 C     6.0000    0    12.011  -49.049460   53.490720   86.008807
  19 C     6.0000    0    12.011  -49.250044   52.997177   83.130828
  20 O     8.0000    0    15.999  -47.999285   50.544145   82.656702
  21 H     1.0000    0     1.008  -46.771025   47.643605   84.971862
  22 O     8.0000    0    15.999  -50.920534   49.271296   87.394644
  23 H     1.0000    0     1.008  -47.513095   50.920923   88.936189
  24 H     1.0000    0     1.008  -50.778429   54.312989   86.791192
  25 H     1.0000    0     1.008  -47.488404   54.790770   86.420484
  26 H     1.0000    0     1.008  -48.316487   54.463392   82.008081
  27 H     1.0000    0     1.008  -51.207866   52.815851   82.496057
  28 H     1.0000    0     1.008  -51.903346   49.167224   85.573039

--------------------------------
INTERNAL COORDINATES (ANGSTROEM)
--------------------------------
 C      0   0   0     0.000000000000     0.00000000     0.00000000
 C      1   0   0     1.533334275362     0.00000000     0.00000000
 C      2   1   0     1.547103422529   101.67907390     0.00000000
 C      3   2   1     1.549188819996   103.12737509    35.02687180
 O      1   2   3     1.466801281701   104.24948604   319.98542309
 H      1   2   3     1.091872245274   114.43876658   203.42640133
 H      2   1   3     1.095759553917   110.06782188   117.34000099
 H      2   1   3     1.095088580892   113.12442239   238.72597460
 H      3   2   1     1.094523183857   112.83161078   156.54780790
 H      3   2   1     1.096628013503   110.07982737   276.98070077
 H      4   3   2     1.095413164062   112.52534669   222.25678475
 H      4   3   2     1.093891219455   112.45670684    98.86663270
 C      1   2   3     2.622347421682    95.33299893   108.21776102
 H     13   1   2     1.096323401191   105.90135632   338.78476245
 H     13   1   2     1.098351947237    81.81247002    85.48958716
 O      1   2   3     1.552547583812   111.30349807    79.08752829
 C     13   1   2     1.554065957416   138.94198879   193.12561923
 C     17  13   1     1.532692402278   111.28350430    88.81205838
 C     18  17  13     1.547489579933   101.68386465    79.05079463
 C     19  18  17     1.548833754797   103.12845326    35.00115688
 O     17  13   1     1.466404105286   110.39863465   204.08242751
 H     17  13   1     1.091334504174   109.14925581   321.47687789
 O     18  17  13     1.552550804322   110.04832646   196.41948802
 H     18  17  13     1.095214134313   113.15454339   317.74910594
 H     19  18  17     1.094461511429   112.82067416   156.56116802
 H     19  18  17     1.096879209394   110.02686702   276.93763595
 H     20  19  18     1.095010502233   112.52687981   222.23958195
 H     20  19  18     1.093347154384   112.44723414    98.89364896
 H     23  18  17     1.096686372670   109.60845135   304.13356243

---------------------------
INTERNAL COORDINATES (A.U.)
---------------------------
 C      0   0   0     0.000000000000     0.00000000     0.00000000
 C      1   0   0     2.897581852189     0.00000000     0.00000000
 C      2   1   0     2.923601769431   101.67907390     0.00000000
 C      3   2   1     2.927542599525   103.12737509    35.02687180
 O      1   2   3     2.771852715300   104.24948604   319.98542309
 H      1   2   3     2.063339516798   114.43876658   203.42640133
 H      2   1   3     2.070685465531   110.06782188   117.34000099
 H      2   1   3     2.069417510270   113.12442239   238.72597460
 H      3   2   1     2.068349064717   112.83161078   156.54780790
 H      3   2   1     2.072326616307   110.07982737   276.98070077
 H      4   3   2     2.070030883569   112.52534669   222.25678475
 H      4   3   2     2.067154825070   112.45670684    98.86663270
 C      1   2   3     4.955518454973    95.33299893   108.21776102
 H     13   1   2     2.071750982461   105.90135632   338.78476245
 H     13   1   2     2.075584378938    81.81247002    85.48958716
 O      1   2   3     2.933889743286   111.30349807    79.08752829
 C     13   1   2     2.936759053567   138.94198879   193.12561923
 C     17  13   1     2.896368887847   111.28350430    88.81205838
 C     18  17  13     2.924331501169   101.68386465    79.05079463
 C     19  18  17     2.926871623540   103.12845326    35.00115688
 O     17  13   1     2.771102160649   110.39863465   204.08242751
 H     17  13   1     2.062323333387   109.14925581   321.47687789
 O     18  17  13     2.933895829167   110.04832646   196.41948802
 H     18  17  13     2.069654771852   113.15454339   317.74910594
 H     19  18  17     2.068232520719   112.82067416   156.56116802
 H     19  18  17     2.072801307746   110.02686702   276.93763595
 H     20  19  18     2.069269962987   112.52687981   222.23958195
 H     20  19  18     2.066126691088   112.44723414    98.89364896
 H     23  18  17     2.072436899150   109.60845135   304.13356243

---------------------
BASIS SET INFORMATION
---------------------
There are 3 groups of distinct atoms

 Group   1 Type C   : 10s4p contracted to 3s2p pattern {631/31}
 Group   2 Type O   : 10s4p contracted to 3s2p pattern {631/31}
 Group   3 Type H   : 4s contracted to 2s pattern {31}

Atom   0C    basis set group =>   1
Atom   1C    basis set group =>   1
Atom   2C    basis set group =>   1
Atom   3C    basis set group =>   1
Atom   4O    basis set group =>   2
Atom   5H    basis set group =>   3
Atom   6H    basis set group =>   3
Atom   7H    basis set group =>   3
Atom   8H    basis set group =>   3
Atom   9H    basis set group =>   3
Atom  10H    basis set group =>   3
Atom  11H    basis set group =>   3
Atom  12C    basis set group =>   1
Atom  13H    basis set group =>   3
Atom  14H    basis set group =>   3
Atom  15O    basis set group =>   2
Atom  16C    basis set group =>   1
Atom  17C    basis set group =>   1
Atom  18C    basis set group =>   1
Atom  19C    basis set group =>   1
Atom  20O    basis set group =>   2
Atom  21H    basis set group =>   3
Atom  22O    basis set group =>   2
Atom  23H    basis set group =>   3
Atom  24H    basis set group =>   3
Atom  25H    basis set group =>   3
Atom  26H    basis set group =>   3
Atom  27H    basis set group =>   3
Atom  28H    basis set group =>   3
------------------------------------------------------------------------------
                           ORCA GTO INTEGRAL CALCULATION
------------------------------------------------------------------------------

                         BASIS SET STATISTICS AND STARTUP INFO

 # of primitive gaussian shells          ...  246
 # of primitive gaussian functions       ...  350
 # of contracted shells                  ...   97
 # of contracted basis functions         ...  149
 Highest angular momentum                ...    1
 Maximum contraction depth               ...    6
 Integral package used                   ... LIBINT
 Integral threshhold            Thresh   ...  2.500e-11
 Primitive cut-off              TCut     ...  2.500e-12


------------------------------ INTEGRAL EVALUATION ----------------------------


 * One electron integrals 
 Pre-screening matrix                    ... done
 Shell pair data                         ... done (   0.002 sec)

-------------------------------------------------------------------------------
                                 ORCA SCF
-------------------------------------------------------------------------------

------------
SCF SETTINGS
------------
Hamiltonian:
 Density Functional     Method          .... DFT(GTOs)
 Exchange Functional    Exchange        .... B88
   X-Alpha parameter    XAlpha          ....  0.666667
   Becke's b parameter  XBeta           ....  0.004200
 Correlation Functional Correlation     .... LYP
 LDA part of GGA corr.  LDAOpt          .... VWN-5
 Gradients option       PostSCFGGA      .... off
 Hybrid DFT is turned on
   Fraction HF Exchange ScalHFX         ....  0.200000
   Scaling of DF-GGA-X  ScalDFX         ....  0.720000
   Scaling of DF-GGA-C  ScalDFC         ....  0.810000
   Scaling of DF-LDA-C  ScalLDAC        ....  1.000000
   Perturbative correction              ....  0.000000
   Density functional embedding theory  .... OFF
   NL short-range parameter             ....  4.800000


General Settings:
 Integral files         IntName         .... project_8050/ensemble_180_150
 Hartree-Fock type      HFTyp           .... RHF
 Total Charge           Charge          ....    0
 Multiplicity           Mult            ....    1
 Number of Electrons    NEL             ....  102
 Basis Dimension        Dim             ....  149
 Nuclear Repulsion      ENuc            ....    849.0141294277 Eh

Convergence Acceleration:
 DIIS                   CNVDIIS         .... on
   Start iteration      DIISMaxIt       ....    12
   Startup error        DIISStart       ....  0.200000
   # of expansion vecs  DIISMaxEq       ....     5
   Bias factor          DIISBfac        ....   1.050
   Max. coefficient     DIISMaxC        ....  10.000
 Newton-Raphson         CNVNR           .... off
 SOSCF                  CNVSOSCF        .... on
   Start iteration      SOSCFMaxIt      ....   150
   Startup grad/error   SOSCFStart      ....  0.003300
 Level Shifting         CNVShift        .... on
   Level shift para.    LevelShift      ....    0.2500
   Turn off err/grad.   ShiftErr        ....    0.0010
 Zerner damping         CNVZerner       .... off
 Static damping         CNVDamp         .... on
   Fraction old density DampFac         ....    0.7000
   Max. Damping (<1)    DampMax         ....    0.9800
   Min. Damping (>=0)   DampMin         ....    0.0000
   Turn off err/grad.   DampErr         ....    0.1000
 Fernandez-Rico         CNVRico         .... off

SCF Procedure:
 Maximum # iterations   MaxIter         ....   125
 SCF integral mode      SCFMode         .... Direct
   Integral package                     .... LIBINT
 Reset frequency        DirectResetFreq ....    20
 Integral Threshold     Thresh          ....  2.500e-11 Eh
 Primitive CutOff       TCut            ....  2.500e-12 Eh

Convergence Tolerance:
 Convergence Check Mode ConvCheckMode   .... Total+1el-Energy
 Convergence forced     ConvForced      .... 0
 Energy Change          TolE            ....  1.000e-08 Eh
 1-El. energy change                    ....  1.000e-05 Eh
 Orbital Gradient       TolG            ....  1.000e-05
 Orbital Rotation angle TolX            ....  1.000e-05
 DIIS Error             TolErr          ....  5.000e-07


Diagonalization of the overlap matrix:
Smallest eigenvalue                        ... 4.157e-03
Time for diagonalization                   ...    0.007 sec
Threshold for overlap eigenvalues          ... 1.000e-08
Number of eigenvalues below threshold      ... 0
Time for construction of square roots      ...    0.355 sec
Total time needed                          ...    0.362 sec

-------------------
DFT GRID GENERATION
-------------------

General Integration Accuracy     IntAcc      ...  4.340
Radial Grid Type                 RadialGrid  ... Gauss-Chebyshev
Angular Grid (max. acc.)         AngularGrid ... Lebedev-110
Angular grid pruning method      GridPruning ... 3 (G Style)
Weight generation scheme         WeightScheme... Becke
Basis function cutoff            BFCut       ...    1.0000e-11
Integration weight cutoff        WCut        ...    1.0000e-14
Grids for H and He will be reduced by one unit

# of grid points (after initial pruning)     ...  34472 (   0.0 sec)
# of grid points (after weights+screening)   ...  31037 (   0.3 sec)
nearest neighbour list constructed           ...    0.0 sec
Grid point re-assignment to atoms done       ...    0.0 sec
Grid point division into batches done        ...    0.1 sec
Reduced shell lists constructed in    0.5 sec

Total number of grid points                  ...    31037
Total number of batches                      ...      498
Average number of points per batch           ...       62
Average number of grid points per atom       ...     1070
Average number of shells per batch           ...    57.00 (58.76%)
Average number of basis functions per batch  ...    92.26 (61.92%)
Average number of large shells per batch     ...    40.07 (70.29%)
Average number of large basis fcns per batch ...    66.10 (71.65%)
Maximum spatial batch extension              ...  19.44, 20.73, 19.49 au
Average spatial batch extension              ...   3.22,  3.39,  3.32 au

Time for grid setup =    1.953 sec

------------------------------
INITIAL GUESS: MODEL POTENTIAL
------------------------------
Loading Hartree-Fock densities                     ... done
Calculating cut-offs                               ... done
Setting up the integral package                    ... done
Initializing the effective Hamiltonian             ... done
Starting the Coulomb interaction                   ... done (   0.4 sec)
Reading the grid                                   ... done
Mapping shells                                     ... done
Starting the XC term evaluation                    ... done (   0.3 sec)
  promolecular density results
     # of electrons  =    101.995736155
     EX              =    -83.661735463
     EC              =     -3.455981666
     EX+EC           =    -87.117717129
Transforming the Hamiltonian                       ... done (   0.1 sec)
Diagonalizing the Hamiltonian                      ... done (   0.0 sec)
Back transforming the eigenvectors                 ... done (   0.0 sec)
Now organizing SCF variables                       ... done
                      ------------------
                      INITIAL GUESS DONE (   3.1 sec)
                      ------------------
--------------
SCF ITERATIONS
--------------
ITER       Energy         Delta-E        Max-DP      RMS-DP      [F,P]     Damp
               ***  Starting incremental Fock matrix formation  ***
  0   -652.5388959268   0.000000000000 0.08150313  0.00300930  0.2493078 0.7000
  1   -652.6778906243  -0.138994697495 0.04803643  0.00206182  0.1010801 0.7000
                               ***Turning on DIIS***
  2   -652.7301292857  -0.052238661418 0.05539447  0.00330761  0.0317809 0.0000
  3   -652.8160877805  -0.085958494842 0.03310281  0.00136823  0.0571757 0.0000
  4   -652.8334401494  -0.017352368881 0.00835335  0.00042604  0.0090006 0.0000
  5   -652.8344319600  -0.000991810612 0.00271117  0.00013013  0.0038569 0.0000
                      *** Initiating the SOSCF procedure ***
                           *** Shutting down DIIS ***
                      *** Re-Reading the Fockian *** 
                      *** Removing any level shift *** 
ITER      Energy       Delta-E        Grad      Rot      Max-DP    RMS-DP
  6   -652.83450196  -0.0000699959  0.000215  0.000215  0.000863  0.000054
               *** Restarting incremental Fock matrix formation ***
  7   -652.83450486  -0.0000029059  0.000125  0.000145  0.000914  0.000028
  8   -652.83450379   0.0000010753  0.000151  0.000120  0.000456  0.000017
  9   -652.83450589  -0.0000021078  0.000021  0.000034  0.000169  0.000006
 10   -652.83450583   0.0000000686  0.000037  0.000021  0.000115  0.000004
 11   -652.83450595  -0.0000001205  0.000004  0.000004  0.000020  0.000001
 12   -652.83450595   0.0000000009  0.000006  0.000003  0.000012  0.000000
                  ***Gradient check signals convergence***
              ***Rediagonalizing the Fockian in SOSCF/NRSCF***

               *****************************************************
               *                     SUCCESS                       *
               *           SCF CONVERGED AFTER  13 CYCLES          *
               *****************************************************

Setting up the final grid:

General Integration Accuracy     IntAcc      ...  4.670
Radial Grid Type                 RadialGrid  ... Gauss-Chebyshev
Angular Grid (max. acc.)         AngularGrid ... Lebedev-302
Angular grid pruning method      GridPruning ... 3 (G Style)
Weight generation scheme         WeightScheme... Becke
Basis function cutoff            BFCut       ...    1.0000e-11
Integration weight cutoff        WCut        ...    1.0000e-14
Grids for H and He will be reduced by one unit

# of grid points (after initial pruning)     ... 135060 (   0.1 sec)
# of grid points (after weights+screening)   ... 119182 (   1.1 sec)
nearest neighbour list constructed           ...    0.0 sec
Grid point re-assignment to atoms done       ...    0.0 sec
Grid point division into batches done        ...    0.5 sec
Reduced shell lists constructed in    1.5 sec

Total number of grid points                  ...   119182
Total number of batches                      ...     1876
Average number of points per batch           ...       63
Average number of grid points per atom       ...     4110
Average number of shells per batch           ...    51.90 (53.51%)
Average number of basis functions per batch  ...    84.31 (56.58%)
Average number of large shells per batch     ...    35.77 (68.92%)
Average number of large basis fcns per batch ...    59.27 (70.30%)
Maximum spatial batch extension              ...  16.52, 17.96, 18.27 au
Average spatial batch extension              ...   2.14,  2.26,  2.20 au

Final grid set up in    7.2 sec
Final integration                            ... done (   4.1 sec)
Change in XC energy                          ...     0.000074122
Integrated number of electrons               ...   101.999511233
Previous integrated no of electrons          ...   102.004079711

----------------
TOTAL SCF ENERGY
----------------

Total Energy       :         -652.83443182 Eh          -17764.52802 eV

Components:
Nuclear Repulsion  :          849.01412943 Eh           23102.84899 eV
Electronic Energy  :        -1501.84856125 Eh          -40867.37701 eV
One Electron Energy:        -2575.65168332 Eh          -70087.04546 eV
Two Electron Energy:         1073.80312207 Eh           29219.66845 eV

Virial components:
Potential Energy   :        -1301.74083801 Eh          -35422.16903 eV
Kinetic Energy     :          648.90640618 Eh           17657.64101 eV
Virial Ratio       :            2.00605330


DFT components:
N(Alpha)           :       50.999755616499 electrons
N(Beta)            :       50.999755616499 electrons
N(Total)           :      101.999511232999 electrons
E(X)               :      -67.586611047311 Eh       
E(C)               :       -4.067953387775 Eh       
E(XC)              :      -71.654564435086 Eh       
DFET-embed. en.    :        0.000000000000 Eh       

---------------
SCF CONVERGENCE
---------------

  Last Energy change         ...   -1.2194e-09  Tolerance :   1.0000e-08
  Last MAX-Density change    ...    3.0958e-06  Tolerance :   1.0000e-07
  Last RMS-Density change    ...    1.1653e-07  Tolerance :   5.0000e-09
  Last Orbital Gradient      ...    3.3721e-07  Tolerance :   1.0000e-05
  Last Orbital Rotation      ...    6.7048e-07  Tolerance :   1.0000e-05

             **** THE GBW FILE WAS UPDATED (project_8050/ensemble_180_150.gbw) ****
             **** DENSITY FILE WAS UPDATED (project_8050/ensemble_180_150.scfp) ****
             **** ENERGY FILE WAS UPDATED (project_8050/ensemble_180_150.en.tmp) ****
             **** THE GBW FILE WAS UPDATED (project_8050/ensemble_180_150.gbw) ****
             **** DENSITY FILE WAS UPDATED (project_8050/ensemble_180_150.scfp) ****
----------------
ORBITAL ENERGIES
----------------

  NO   OCC          E(Eh)            E(eV) 
   0   2.0000     -19.153560      -521.1949 
   1   2.0000     -19.150662      -521.1160 
   2   2.0000     -19.145544      -520.9767 
   3   2.0000     -19.140970      -520.8523 
   4   2.0000     -10.287682      -279.9421 
   5   2.0000     -10.241723      -278.6914 
   6   2.0000     -10.239496      -278.6309 
   7   2.0000     -10.238114      -278.5932 
   8   2.0000     -10.236143      -278.5396 
   9   2.0000     -10.229173      -278.3499 
  10   2.0000     -10.194688      -277.4116 
  11   2.0000     -10.194600      -277.4092 
  12   2.0000     -10.192059      -277.3400 
  13   2.0000      -1.037342       -28.2275 
  14   2.0000      -1.034613       -28.1533 
  15   2.0000      -0.965775       -26.2801 
  16   2.0000      -0.960497       -26.1365 
  17   2.0000      -0.791569       -21.5397 
  18   2.0000      -0.783881       -21.3305 
  19   2.0000      -0.767134       -20.8748 
  20   2.0000      -0.732972       -19.9452 
  21   2.0000      -0.674489       -18.3538 
  22   2.0000      -0.603884       -16.4325 
  23   2.0000      -0.601625       -16.3711 
  24   2.0000      -0.592750       -16.1295 
  25   2.0000      -0.575769       -15.6675 
  26   2.0000      -0.514507       -14.0005 
  27   2.0000      -0.506964       -13.7952 
  28   2.0000      -0.497016       -13.5245 
  29   2.0000      -0.491612       -13.3774 
  30   2.0000      -0.464813       -12.6482 
  31   2.0000      -0.447844       -12.1865 
  32   2.0000      -0.443651       -12.0724 
  33   2.0000      -0.439975       -11.9723 
  34   2.0000      -0.422203       -11.4887 
  35   2.0000      -0.415080       -11.2949 
  36   2.0000      -0.405215       -11.0265 
  37   2.0000      -0.388564       -10.5734 
  38   2.0000      -0.375651       -10.2220 
  39   2.0000      -0.369068       -10.0429 
  40   2.0000      -0.362709        -9.8698 
  41   2.0000      -0.358848        -9.7647 
  42   2.0000      -0.358154        -9.7459 
  43   2.0000      -0.327017        -8.8986 
  44   2.0000      -0.319761        -8.7012 
  45   2.0000      -0.311817        -8.4850 
  46   2.0000      -0.300656        -8.1813 
  47   2.0000      -0.272693        -7.4204 
  48   2.0000      -0.263163        -7.1610 
  49   2.0000      -0.256107        -6.9690 
  50   2.0000      -0.246180        -6.6989 
  51   0.0000       0.037075         1.0089 
  52   0.0000       0.055004         1.4967 
  53   0.0000       0.073804         2.0083 
  54   0.0000       0.088834         2.4173 
  55   0.0000       0.094880         2.5818 
  56   0.0000       0.103896         2.8271 
  57   0.0000       0.111913         3.0453 
  58   0.0000       0.116376         3.1667 
  59   0.0000       0.127297         3.4639 
  60   0.0000       0.135372         3.6836 
  61   0.0000       0.142873         3.8878 
  62   0.0000       0.148898         4.0517 
  63   0.0000       0.153622         4.1803 
  64   0.0000       0.154860         4.2140 
  65   0.0000       0.164959         4.4888 
  66   0.0000       0.169489         4.6120 
  67   0.0000       0.174071         4.7367 
  68   0.0000       0.176895         4.8136 
  69   0.0000       0.187417         5.0999 
  70   0.0000       0.200509         5.4561 
  71   0.0000       0.213014         5.7964 
  72   0.0000       0.214931         5.8486 
  73   0.0000       0.223724         6.0879 
  74   0.0000       0.230939         6.2842 
  75   0.0000       0.244006         6.6397 
  76   0.0000       0.258386         7.0311 
  77   0.0000       0.266622         7.2552 
  78   0.0000       0.275921         7.5082 
  79   0.0000       0.291363         7.9284 
  80   0.0000       0.297875         8.1056 
  81   0.0000       0.516807        14.0630 
  82   0.0000       0.539153        14.6711 
  83   0.0000       0.543054        14.7773 
  84   0.0000       0.545453        14.8425 
  85   0.0000       0.554456        15.0875 
  86   0.0000       0.557564        15.1721 
  87   0.0000       0.576279        15.6814 
  88   0.0000       0.580424        15.7942 
  89   0.0000       0.587180        15.9780 
  90   0.0000       0.592551        16.1241 
  91   0.0000       0.600264        16.3340 
  92   0.0000       0.620443        16.8831 
  93   0.0000       0.629112        17.1190 
  94   0.0000       0.633806        17.2467 
  95   0.0000       0.640298        17.4234 
  96   0.0000       0.644275        17.5316 
  97   0.0000       0.668062        18.1789 
  98   0.0000       0.677839        18.4449 
  99   0.0000       0.696732        18.9590 
 100   0.0000       0.717815        19.5327 
 101   0.0000       0.751434        20.4476 
 102   0.0000       0.781115        21.2552 
 103   0.0000       0.810083        22.0435 
 104   0.0000       0.816990        22.2314 
 105   0.0000       0.829543        22.5730 
 106   0.0000       0.831086        22.6150 
 107   0.0000       0.854264        23.2457 
 108   0.0000       0.864408        23.5218 
 109   0.0000       0.867230        23.5985 
 110   0.0000       0.878057        23.8932 
 111   0.0000       0.889576        24.2066 
 112   0.0000       0.893925        24.3249 
 113   0.0000       0.903723        24.5915 
 114   0.0000       0.917365        24.9628 
 115   0.0000       0.920087        25.0369 
 116   0.0000       0.930946        25.3323 
 117   0.0000       0.940714        25.5981 
 118   0.0000       0.944735        25.7076 
 119   0.0000       0.954715        25.9791 
 120   0.0000       0.961467        26.1628 
 121   0.0000       0.975868        26.5547 
 122   0.0000       0.984933        26.8014 
 123   0.0000       1.027042        27.9472 
 124   0.0000       1.043064        28.3832 
 125   0.0000       1.052079        28.6285 
 126   0.0000       1.067188        29.0397 
 127   0.0000       1.085699        29.5434 
 128   0.0000       1.124203        30.5911 
 129   0.0000       1.142780        31.0966 
 130   0.0000       1.182062        32.1656 
 131   0.0000       1.215140        33.0657 
 132   0.0000       1.257625        34.2217 
 133   0.0000       1.275204        34.7001 
 134   0.0000       1.316580        35.8260 
 135   0.0000       1.331799        36.2401 
 136   0.0000       1.369297        37.2605 
 137   0.0000       1.398999        38.0687 
 138   0.0000       1.415859        38.5275 
 139   0.0000       1.449268        39.4366 
 140   0.0000       1.490257        40.5520 
 141   0.0000       1.572557        42.7915 
 142   0.0000       1.609340        43.7924 
 143   0.0000       1.669190        45.4210 
 144   0.0000       1.715996        46.6946 
 145   0.0000       1.834087        49.9080 
 146   0.0000       1.870043        50.8865 
 147   0.0000       2.049974        55.7826 
 148   0.0000       2.095724        57.0276 

                    ********************************
                    * MULLIKEN POPULATION ANALYSIS *
                    ********************************

-----------------------
MULLIKEN ATOMIC CHARGES
-----------------------
   0 C :    0.304642
   1 C :   -0.282363
   2 C :   -0.297374
   3 C :   -0.002194
   4 O :   -0.500019
   5 H :    0.151507
   6 H :    0.150752
   7 H :    0.147846
   8 H :    0.143784
   9 H :    0.156695
  10 H :    0.155126
  11 H :    0.143995
  12 C :   -0.032735
  13 H :    0.130313
  14 H :    0.144376
  15 O :   -0.518046
  16 C :    0.064042
  17 C :    0.082581
  18 C :   -0.316026
  19 C :   -0.027260
  20 O :   -0.520636
  21 H :    0.178259
  22 O :   -0.595726
  23 H :    0.184706
  24 H :    0.165567
  25 H :    0.150177
  26 H :    0.147098
  27 H :    0.145489
  28 H :    0.345423
Sum of atomic charges:    0.0000000

--------------------------------
MULLIKEN REDUCED ORBITAL CHARGES
--------------------------------
  0 C s       :     3.228367  s :     3.228367
      pz      :     0.793829  p :     2.466991
      px      :     0.689297
      py      :     0.983866
  1 C s       :     3.307368  s :     3.307368
      pz      :     0.984948  p :     2.974995
      px      :     1.041419
      py      :     0.948627
  2 C s       :     3.314641  s :     3.314641
      pz      :     0.906390  p :     2.982733
      px      :     1.082596
      py      :     0.993747
  3 C s       :     3.261798  s :     3.261798
      pz      :     0.941811  p :     2.740396
      px      :     1.058468
      py      :     0.740117
  4 O s       :     3.949244  s :     3.949244
      pz      :     1.318737  p :     4.550775
      px      :     1.713960
      py      :     1.518077
  5 H s       :     0.848493  s :     0.848493
  6 H s       :     0.849248  s :     0.849248
  7 H s       :     0.852154  s :     0.852154
  8 H s       :     0.856216  s :     0.856216
  9 H s       :     0.843305  s :     0.843305
 10 H s       :     0.844874  s :     0.844874
 11 H s       :     0.856005  s :     0.856005
 12 C s       :     3.286922  s :     3.286922
      pz      :     0.814253  p :     2.745814
      px      :     0.908125
      py      :     1.023436
 13 H s       :     0.869687  s :     0.869687
 14 H s       :     0.855624  s :     0.855624
 15 O s       :     3.949983  s :     3.949983
      pz      :     1.458381  p :     4.568063
      px      :     1.275435
      py      :     1.834246
 16 C s       :     3.280643  s :     3.280643
      pz      :     0.724672  p :     2.655315
      px      :     0.855228
      py      :     1.075415
 17 C s       :     3.298526  s :     3.298526
      pz      :     1.034009  p :     2.618893
      px      :     0.763800
      py      :     0.821084
 18 C s       :     3.319556  s :     3.319556
      pz      :     0.927228  p :     2.996470
      px      :     1.100997
      py      :     0.968245
 19 C s       :     3.267426  s :     3.267426
      pz      :     0.968219  p :     2.759834
      px      :     1.008191
      py      :     0.783424
 20 O s       :     3.945848  s :     3.945848
      pz      :     1.507743  p :     4.574788
      px      :     1.657399
      py      :     1.409645
 21 H s       :     0.821741  s :     0.821741
 22 O s       :     3.952707  s :     3.952707
      pz      :     1.467630  p :     4.643019
      px      :     1.410213
      py      :     1.765175
 23 H s       :     0.815294  s :     0.815294
 24 H s       :     0.834433  s :     0.834433
 25 H s       :     0.849823  s :     0.849823
 26 H s       :     0.852902  s :     0.852902
 27 H s       :     0.854511  s :     0.854511
 28 H s       :     0.654577  s :     0.654577


                     *******************************
                     * LOEWDIN POPULATION ANALYSIS *
                     *******************************

----------------------
LOEWDIN ATOMIC CHARGES
----------------------
   0 C :    0.193573
   1 C :   -0.229550
   2 C :   -0.216824
   3 C :   -0.027487
   4 O :   -0.297382
   5 H :    0.104785
   6 H :    0.117012
   7 H :    0.116715
   8 H :    0.114694
   9 H :    0.116037
  10 H :    0.109545
  11 H :    0.103238
  12 C :   -0.050310
  13 H :    0.093802
  14 H :    0.106993
  15 O :   -0.374415
  16 C :    0.026265
  17 C :    0.045260
  18 C :   -0.240587
  19 C :   -0.039530
  20 O :   -0.324202
  21 H :    0.126858
  22 O :   -0.440955
  23 H :    0.135336
  24 H :    0.128421
  25 H :    0.114273
  26 H :    0.103728
  27 H :    0.101887
  28 H :    0.282818

-------------------------------
LOEWDIN REDUCED ORBITAL CHARGES
-------------------------------
  0 C s       :     2.979084  s :     2.979084
      pz      :     0.916458  p :     2.827342
      px      :     0.830865
      py      :     1.080019
  1 C s       :     2.979384  s :     2.979384
      pz      :     1.076433  p :     3.250166
      px      :     1.110122
      py      :     1.063612
  2 C s       :     2.973079  s :     2.973079
      pz      :     1.031402  p :     3.243745
      px      :     1.131482
      py      :     1.080861
  3 C s       :     2.983946  s :     2.983946
      pz      :     1.039614  p :     3.043541
      px      :     1.120022
      py      :     0.883904
  4 O s       :     3.607279  s :     3.607279
      pz      :     1.379546  p :     4.690103
      px      :     1.746153
      py      :     1.564404
  5 H s       :     0.895215  s :     0.895215
  6 H s       :     0.882988  s :     0.882988
  7 H s       :     0.883285  s :     0.883285
  8 H s       :     0.885306  s :     0.885306
  9 H s       :     0.883963  s :     0.883963
 10 H s       :     0.890455  s :     0.890455
 11 H s       :     0.896762  s :     0.896762
 12 C s       :     3.006749  s :     3.006749
      pz      :     0.917767  p :     3.043561
      px      :     1.026794
      py      :     1.098999
 13 H s       :     0.906198  s :     0.906198
 14 H s       :     0.893007  s :     0.893007
 15 O s       :     3.662683  s :     3.662683
      pz      :     1.515181  p :     4.711733
      px      :     1.332889
      py      :     1.863662
 16 C s       :     2.967482  s :     2.967482
      pz      :     0.884597  p :     3.006253
      px      :     1.012647
      py      :     1.109008
 17 C s       :     2.975848  s :     2.975848
      pz      :     1.112463  p :     2.978892
      px      :     0.893013
      py      :     0.973416
 18 C s       :     2.982391  s :     2.982391
      pz      :     1.048741  p :     3.258196
      px      :     1.133538
      py      :     1.075916
 19 C s       :     2.983673  s :     2.983673
      pz      :     1.074121  p :     3.055857
      px      :     1.077609
      py      :     0.904128
 20 O s       :     3.602691  s :     3.602691
      pz      :     1.561237  p :     4.721511
      px      :     1.692109
      py      :     1.468165
 21 H s       :     0.873142  s :     0.873142
 22 O s       :     3.694609  s :     3.694609
      pz      :     1.502323  p :     4.746346
      px      :     1.456039
      py      :     1.787984
 23 H s       :     0.864664  s :     0.864664
 24 H s       :     0.871579  s :     0.871579
 25 H s       :     0.885727  s :     0.885727
 26 H s       :     0.896272  s :     0.896272
 27 H s       :     0.898113  s :     0.898113
 28 H s       :     0.717182  s :     0.717182


                      *****************************
                      * MAYER POPULATION ANALYSIS *
                      *****************************

  NA   - Mulliken gross atomic population
  ZA   - Total nuclear charge
  QA   - Mulliken gross atomic charge
  VA   - Mayer's total valence
  BVA  - Mayer's bonded valence
  FA   - Mayer's free valence

  ATOM       NA         ZA         QA         VA         BVA        FA
  0 C      5.6954     6.0000     0.3046     3.6524     3.6524     0.0000
  1 C      6.2824     6.0000    -0.2824     3.7151     3.7151     0.0000
  2 C      6.2974     6.0000    -0.2974     3.7636     3.7636     0.0000
  3 C      6.0022     6.0000    -0.0022     3.6541     3.6541    -0.0000
  4 O      8.5000     8.0000    -0.5000     1.8318     1.8318     0.0000
  5 H      0.8485     1.0000     0.1515     0.9285     0.9285    -0.0000
  6 H      0.8492     1.0000     0.1508     0.9312     0.9312    -0.0000
  7 H      0.8522     1.0000     0.1478     0.9393     0.9393    -0.0000
  8 H      0.8562     1.0000     0.1438     0.9364     0.9364    -0.0000
  9 H      0.8433     1.0000     0.1567     0.9355     0.9355    -0.0000
 10 H      0.8449     1.0000     0.1551     0.9249     0.9249    -0.0000
 11 H      0.8560     1.0000     0.1440     0.9281     0.9281    -0.0000
 12 C      6.0327     6.0000    -0.0327     3.6409     3.6409     0.0000
 13 H      0.8697     1.0000     0.1303     0.9307     0.9307    -0.0000
 14 H      0.8556     1.0000     0.1444     0.9315     0.9315     0.0000
 15 O      8.5180     8.0000    -0.5180     1.7626     1.7626     0.0000
 16 C      5.9360     6.0000     0.0640     3.5816     3.5816     0.0000
 17 C      5.9174     6.0000     0.0826     3.6271     3.6271     0.0000
 18 C      6.3160     6.0000    -0.3160     3.7051     3.7051     0.0000
 19 C      6.0273     6.0000    -0.0273     3.6612     3.6612     0.0000
 20 O      8.5206     8.0000    -0.5206     1.7692     1.7692     0.0000
 21 H      0.8217     1.0000     0.1783     0.9330     0.9330     0.0000
 22 O      8.5957     8.0000    -0.5957     1.7602     1.7602    -0.0000
 23 H      0.8153     1.0000     0.1847     0.9365     0.9365     0.0000
 24 H      0.8344     1.0000     0.1656     0.9389     0.9389    -0.0000
 25 H      0.8498     1.0000     0.1502     0.9331     0.9331     0.0000
 26 H      0.8529     1.0000     0.1471     0.9272     0.9272     0.0000
 27 H      0.8545     1.0000     0.1455     0.9294     0.9294     0.0000
 28 H      0.6546     1.0000     0.3454     0.8505     0.8505     0.0000

  Mayer bond orders larger than 0.100000
B(  0-C ,  1-C ) :   0.9243 B(  0-C ,  4-O ) :   0.9396 B(  0-C ,  5-H ) :   0.9209 
B(  0-C , 15-O ) :   0.8214 B(  1-C ,  2-C ) :   0.9548 B(  1-C ,  6-H ) :   0.9321 
B(  1-C ,  7-H ) :   0.9325 B(  2-C ,  3-C ) :   0.9548 B(  2-C ,  8-H ) :   0.9446 
B(  2-C ,  9-H ) :   0.9454 B(  3-C ,  4-O ) :   0.8356 B(  3-C , 10-H ) :   0.9333 
B(  3-C , 11-H ) :   0.9382 B( 12-C , 13-H ) :   0.9173 B( 12-C , 14-H ) :   0.9183 
B( 12-C , 15-O ) :   0.8523 B( 12-C , 16-C ) :   0.8817 B( 16-C , 17-C ) :   0.9101 
B( 16-C , 20-O ) :   0.8457 B( 16-C , 21-H ) :   0.9258 B( 17-C , 18-C ) :   0.9173 
B( 17-C , 22-O ) :   0.8849 B( 17-C , 23-H ) :   0.9216 B( 18-C , 19-C ) :   0.9386 
B( 18-C , 24-H ) :   0.9368 B( 18-C , 25-H ) :   0.9304 B( 19-C , 20-O ) :   0.8448 
B( 19-C , 26-H ) :   0.9347 B( 19-C , 27-H ) :   0.9378 B( 22-O , 28-H ) :   0.8121 


-------
TIMINGS
-------

Total SCF time: 0 days 0 hours 14 min 23 sec 

Total time                  ....     863.850 sec
Sum of individual times     ....     833.722 sec  ( 96.5%)

Fock matrix formation       ....     811.798 sec  ( 94.0%)
  XC integration            ....      73.454 sec  (  9.0% of F)
    Basis function eval.    ....       3.311 sec  (  4.5% of XC)
    Density eval.           ....       2.342 sec  (  3.2% of XC)
    XC-Functional eval.     ....       2.200 sec  (  3.0% of XC)
    XC-Potential eval.      ....       1.394 sec  (  1.9% of XC)
Diagonalization             ....       3.375 sec  (  0.4%)
Density matrix formation    ....       0.012 sec  (  0.0%)
Population analysis         ....       5.342 sec  (  0.6%)
Initial guess               ....       1.120 sec  (  0.1%)
Orbital Transformation      ....       0.000 sec  (  0.0%)
Orbital Orthonormalization  ....       0.000 sec  (  0.0%)
DIIS solution               ....       0.901 sec  (  0.1%)
SOSCF solution              ....       1.988 sec  (  0.2%)
Grid generation             ....       9.185 sec  (  1.1%)

-------------------------   --------------------
FINAL SINGLE POINT ENERGY      -652.834431824805
-------------------------   --------------------

------------------------------------------------------------------------------
                         ORCA SCF GRADIENT CALCULATION
------------------------------------------------------------------------------

Gradient of the Kohn-Sham DFT energy:
Kohn-Sham wavefunction type      ... RKS
Hartree-Fock exchange scaling    ...    0.200
Number of operators              ...    1
Number of atoms                  ...   29
Basis set dimensions             ...  149
Integral neglect threshold       ... 2.5e-11
Integral primitive cutoff        ... 2.5e-12

Nuclear repulsion gradient       ... done
One Electron Gradient            ... done
Pre-screening matrix             ... done
Starting the two electron gradient:
Two electron gradient done
Exchange-correlation gradient    ... done

------------------
CARTESIAN GRADIENT
------------------

   1   C   :    0.010559989   -0.000726482   -0.004537887
   2   C   :    0.006508276   -0.002832998   -0.004226475
   3   C   :   -0.000333484   -0.000557731   -0.001741479
   4   C   :    0.000832795   -0.005843098   -0.003867903
   5   O   :    0.019719917   -0.007457809    0.021627207
   6   H   :    0.004680580    0.002299409   -0.001126382
   7   H   :    0.000184449    0.001944244    0.000295134
   8   H   :   -0.001078874    0.001210493   -0.000604328
   9   H   :   -0.000621228    0.000666410    0.000191998
  10   H   :   -0.000586588    0.001742504    0.000566411
  11   H   :   -0.000456968    0.001062236    0.001611017
  12   H   :   -0.000279767    0.001254014    0.000874497
  13   C   :   -0.014755349    0.007820229   -0.009552928
  14   H   :   -0.004876871    0.000119868   -0.002487697
  15   H   :   -0.001772274    0.000777508   -0.002776363
  16   O   :   -0.006305675   -0.003610763    0.023050894
  17   C   :   -0.013255438    0.005331340   -0.017138311
  18   C   :    0.028512506    0.011961460    0.008620764
  19   C   :    0.003090913    0.002091356    0.002291587
  20   C   :    0.000589542   -0.005119917   -0.000205364
  21   O   :   -0.005808982   -0.001655172   -0.000556846
  22   H   :    0.003593587   -0.000391014   -0.002798704
  23   O   :    0.001918975   -0.014804072    0.050774272
  24   H   :    0.008243988    0.007413749    0.000705959
  25   H   :   -0.000931475    0.002814537   -0.001397843
  26   H   :    0.000795816    0.000133245   -0.000940508
  27   H   :    0.000793599    0.000474338    0.000413928
  28   H   :    0.000453246   -0.000187610    0.000728842
  29   H   :   -0.039415200   -0.005930274   -0.057793492

Difference to translation invariance:
           :    0.0000000000   -0.0000000000   -0.0000000000

Norm of the cartesian gradient     ...    0.1081999323
RMS gradient                       ...    0.0116002504
MAX gradient                       ...    0.0577934924

-------
TIMINGS
-------

Total SCF gradient time            ...       30.899 sec

One electron gradient       ....       0.278 sec  (  0.9%)
Prescreening matrices       ....       0.045 sec  (  0.1%)
Two electron gradient       ....      14.621 sec  ( 47.3%)
XC gradient                 ....       7.648 sec  ( 24.8%)
------------------------------------------------------------------------------
                         ORCA GEOMETRY RELAXATION STEP
------------------------------------------------------------------------------

Reading the OPT-File                    .... done
Getting information on internals        .... done
Copying old internal coords+grads       .... done
Making the new internal coordinates     .... (new redundants).... done
Validating the new internal coordinates .... (new redundants).... done
Calculating the B-matrix                .... done
Calculating the G,G- and P matrices     .... done
Transforming gradient to internals      .... done
Projecting the internal gradient        .... done
Number of atoms                         ....  29
Number of internal coordinates          .... 172
Current Energy                          ....  -652.834431825 Eh
Current gradient norm                   ....     0.108199932 Eh/bohr
Maximum allowed component of the step   ....  0.300
Current trust radius                    ....  0.300
Evaluating the initial hessian          ....  (Almloef) done
Projecting the Hessian                  .... done
Forming the augmented Hessian           .... done
Diagonalizing the augmented Hessian     .... done
Last element of RFO vector              ....  0.944093444
Lowest eigenvalues of augmented Hessian:
 -0.037814810  0.007886884  0.032992971  0.033115697  0.036573806
Length of the computed step             ....  0.349200578
Warning: the length of the step is outside the trust region - taking restricted step instead
The input lambda is                     ....    -0.037815
   iter:   1  x=   -0.069919  g=    0.994908 f(x)=     0.031941
   iter:   2  x=   -0.081576  g=    0.613825 f(x)=     0.007155
   iter:   3  x=   -0.082421  g=    0.538619 f(x)=     0.000456
   iter:   4  x=   -0.082425  g=    0.533804 f(x)=     0.000002
   iter:   5  x=   -0.082425  g=    0.533783 f(x)=     0.000000
   iter:   6  x=   -0.082425  g=    0.533783 f(x)=    -0.000000
The output lambda is                    ....    -0.082425 (6 iterations)
The final length of the internal step   ....  0.300000000
Converting the step to cartesian space:
 Initial RMS(Int)=    0.0228747855
Transforming coordinates:
 Iter   0:  RMS(Cart)=    0.0970194618 RMS(Int)=    0.6768537297
 Iter   1:  RMS(Cart)=    0.0013860657 RMS(Int)=    0.4790639229
 Iter   2:  RMS(Cart)=    0.0000822232 RMS(Int)=    0.0000432298
[...]
  29   2.0000      -0.492564       -13.4033 
  30   2.0000      -0.472971       -12.8702 
  31   2.0000      -0.456134       -12.4120 
  32   2.0000      -0.454707       -12.3732 
  33   2.0000      -0.445036       -12.1101 
  34   2.0000      -0.426172       -11.5967 
  35   2.0000      -0.414365       -11.2754 
  36   2.0000      -0.403190       -10.9713 
  37   2.0000      -0.391718       -10.6592 
  38   2.0000      -0.379749       -10.3335 
  39   2.0000      -0.367736       -10.0066 
  40   2.0000      -0.362593        -9.8667 
  41   2.0000      -0.359724        -9.7886 
  42   2.0000      -0.356073        -9.6892 
  43   2.0000      -0.333340        -9.0707 
  44   2.0000      -0.317417        -8.6373 
  45   2.0000      -0.310166        -8.4400 
  46   2.0000      -0.301158        -8.1949 
  47   2.0000      -0.272663        -7.4195 
  48   2.0000      -0.261401        -7.1131 
  49   2.0000      -0.259170        -7.0524 
  50   2.0000      -0.245490        -6.6801 
  51   0.0000       0.066206         1.8016 
  52   0.0000       0.068027         1.8511 
  53   0.0000       0.096243         2.6189 
  54   0.0000       0.096468         2.6250 
  55   0.0000       0.103474         2.8157 
  56   0.0000       0.111488         3.0337 
  57   0.0000       0.119626         3.2552 
  58   0.0000       0.124928         3.3995 
  59   0.0000       0.130775         3.5586 
  60   0.0000       0.136053         3.7022 
  61   0.0000       0.146471         3.9857 
  62   0.0000       0.152699         4.1551 
  63   0.0000       0.156153         4.2491 
  64   0.0000       0.162581         4.4241 
  65   0.0000       0.174412         4.7460 
  66   0.0000       0.178173         4.8483 
  67   0.0000       0.186552         5.0763 
  68   0.0000       0.186976         5.0879 
  69   0.0000       0.196181         5.3383 
  70   0.0000       0.219147         5.9633 
  71   0.0000       0.222448         6.0531 
  72   0.0000       0.224553         6.1104 
  73   0.0000       0.233306         6.3486 
  74   0.0000       0.243051         6.6137 
  75   0.0000       0.252233         6.8636 
  76   0.0000       0.263974         7.1831 
  77   0.0000       0.269799         7.3416 
  78   0.0000       0.284538         7.7427 
  79   0.0000       0.300407         8.1745 
  80   0.0000       0.321831         8.7575 
  81   0.0000       0.527211        14.3461 
  82   0.0000       0.542186        14.7536 
  83   0.0000       0.546395        14.8682 
  84   0.0000       0.548938        14.9374 
  85   0.0000       0.553839        15.0707 
  86   0.0000       0.558112        15.1870 
  87   0.0000       0.576951        15.6996 
  88   0.0000       0.586217        15.9518 
  89   0.0000       0.593644        16.1539 
  90   0.0000       0.600549        16.3418 
  91   0.0000       0.605436        16.4748 
  92   0.0000       0.618290        16.8245 
  93   0.0000       0.631113        17.1735 
  94   0.0000       0.637019        17.3342 
  95   0.0000       0.644151        17.5282 
  96   0.0000       0.648437        17.6449 
  97   0.0000       0.678290        18.4572 
  98   0.0000       0.680022        18.5043 
  99   0.0000       0.707803        19.2603 
 100   0.0000       0.724367        19.7110 
 101   0.0000       0.763078        20.7644 
 102   0.0000       0.785195        21.3662 
 103   0.0000       0.816238        22.2110 
 104   0.0000       0.834101        22.6970 
 105   0.0000       0.838784        22.8245 
 106   0.0000       0.846246        23.0275 
 107   0.0000       0.854252        23.2454 
 108   0.0000       0.865151        23.5419 
 109   0.0000       0.868557        23.6346 
 110   0.0000       0.882312        24.0089 
 111   0.0000       0.893212        24.3055 
 112   0.0000       0.899294        24.4710 
 113   0.0000       0.907943        24.7064 
 114   0.0000       0.914157        24.8755 
 115   0.0000       0.923206        25.1217 
 116   0.0000       0.929331        25.2884 
 117   0.0000       0.939140        25.5553 
 118   0.0000       0.949295        25.8316 
 119   0.0000       0.954476        25.9726 
 120   0.0000       0.962532        26.1918 
 121   0.0000       0.977262        26.5927 
 122   0.0000       0.984828        26.7985 
 123   0.0000       1.020339        27.7648 
 124   0.0000       1.041483        28.3402 
 125   0.0000       1.054358        28.6905 
 126   0.0000       1.072742        29.1908 
 127   0.0000       1.107027        30.1237 
 128   0.0000       1.127439        30.6792 
 129   0.0000       1.158362        31.5206 
 130   0.0000       1.201679        32.6993 
 131   0.0000       1.237089        33.6629 
 132   0.0000       1.251867        34.0650 
 133   0.0000       1.281413        34.8690 
 134   0.0000       1.315545        35.7978 
 135   0.0000       1.356916        36.9236 
 136   0.0000       1.379190        37.5297 
 137   0.0000       1.405896        38.2564 
 138   0.0000       1.432423        38.9782 
 139   0.0000       1.473111        40.0854 
 140   0.0000       1.494824        40.6762 
 141   0.0000       1.603747        43.6402 
 142   0.0000       1.639281        44.6071 
 143   0.0000       1.682935        45.7950 
 144   0.0000       1.744505        47.4704 
 145   0.0000       1.879191        51.1354 
 146   0.0000       1.908869        51.9430 
 147   0.0000       2.056516        55.9607 
 148   0.0000       2.137452        58.1630 

                    ********************************
                    * MULLIKEN POPULATION ANALYSIS *
                    ********************************

-----------------------
MULLIKEN ATOMIC CHARGES
-----------------------
   0 C :    0.307375
   1 C :   -0.281266
   2 C :   -0.297199
   3 C :   -0.001866
   4 O :   -0.501172
   5 H :    0.145350
   6 H :    0.149645
   7 H :    0.144034
   8 H :    0.144239
   9 H :    0.155501
  10 H :    0.156318
  11 H :    0.144123
  12 C :   -0.014231
  13 H :    0.128677
  14 H :    0.140944
  15 O :   -0.516174
  16 C :    0.057236
  17 C :    0.091319
  18 C :   -0.301793
  19 C :   -0.031190
  20 O :   -0.528791
  21 H :    0.169409
  22 O :   -0.602852
  23 H :    0.180242
  24 H :    0.162841
  25 H :    0.143993
  26 H :    0.145750
  27 H :    0.147210
  28 H :    0.362329
Sum of atomic charges:    0.0000000

--------------------------------
MULLIKEN REDUCED ORBITAL CHARGES
--------------------------------
  0 C s       :     3.197477  s :     3.197477
      pz      :     0.803688  p :     2.495148
      px      :     0.697389
      py      :     0.994070
  1 C s       :     3.306679  s :     3.306679
      pz      :     0.985615  p :     2.974587
      px      :     1.031946
      py      :     0.957026
  2 C s       :     3.314410  s :     3.314410
      pz      :     0.907217  p :     2.982789
      px      :     1.081684
      py      :     0.993888
  3 C s       :     3.263740  s :     3.263740
      pz      :     0.927728  p :     2.738126
      px      :     1.061402
      py      :     0.748996
  4 O s       :     3.939669  s :     3.939669
      pz      :     1.264314  p :     4.561503
      px      :     1.768323
      py      :     1.528866
  5 H s       :     0.854650  s :     0.854650
  6 H s       :     0.850355  s :     0.850355
  7 H s       :     0.855966  s :     0.855966
  8 H s       :     0.855761  s :     0.855761
  9 H s       :     0.844499  s :     0.844499
 10 H s       :     0.843682  s :     0.843682
 11 H s       :     0.855877  s :     0.855877
 12 C s       :     3.256596  s :     3.256596
      pz      :     0.800175  p :     2.757635
      px      :     0.919190
      py      :     1.038269
 13 H s       :     0.871323  s :     0.871323
 14 H s       :     0.859056  s :     0.859056
 15 O s       :     3.931392  s :     3.931392
      pz      :     1.471415  p :     4.584781
      px      :     1.306107
      py      :     1.807259
 16 C s       :     3.274712  s :     3.274712
      pz      :     0.737204  p :     2.668052
      px      :     0.859531
      py      :     1.071317
 17 C s       :     3.260579  s :     3.260579
      pz      :     1.053126  p :     2.648102
      px      :     0.784089
      py      :     0.810888
 18 C s       :     3.313525  s :     3.313525
      pz      :     0.926509  p :     2.988268
      px      :     1.092350
      py      :     0.969409
 19 C s       :     3.271180  s :     3.271180
      pz      :     0.970795  p :     2.760010
      px      :     0.990736
      py      :     0.798479
 20 O s       :     3.946666  s :     3.946666
      pz      :     1.513825  p :     4.582125
      px      :     1.628064
      py      :     1.440236
 21 H s       :     0.830591  s :     0.830591
 22 O s       :     3.920757  s :     3.920757
      pz      :     1.494975  p :     4.682096
      px      :     1.495384
      py      :     1.691737
 23 H s       :     0.819758  s :     0.819758
 24 H s       :     0.837159  s :     0.837159
 25 H s       :     0.856007  s :     0.856007
 26 H s       :     0.854250  s :     0.854250
 27 H s       :     0.852790  s :     0.852790
 28 H s       :     0.637671  s :     0.637671


                     *******************************
                     * LOEWDIN POPULATION ANALYSIS *
                     *******************************

----------------------
LOEWDIN ATOMIC CHARGES
----------------------
   0 C :    0.181843
   1 C :   -0.232572
   2 C :   -0.216531
   3 C :   -0.024545
   4 O :   -0.300684
   5 H :    0.099003
   6 H :    0.116996
   7 H :    0.114122
   8 H :    0.115406
   9 H :    0.115408
  10 H :    0.110527
  11 H :    0.103845
  12 C :   -0.044011
  13 H :    0.090841
  14 H :    0.102859
  15 O :   -0.338478
  16 C :    0.017111
  17 C :    0.039549
  18 C :   -0.242648
  19 C :   -0.038573
  20 O :   -0.332724
  21 H :    0.120503
  22 O :   -0.414098
  23 H :    0.129660
  24 H :    0.127201
  25 H :    0.112522
  26 H :    0.103347
  27 H :    0.102961
  28 H :    0.281161

-------------------------------
LOEWDIN REDUCED ORBITAL CHARGES
-------------------------------
  0 C s       :     2.953356  s :     2.953356
      pz      :     0.929168  p :     2.864801
      px      :     0.857606
      py      :     1.078026
  1 C s       :     2.979793  s :     2.979793
      pz      :     1.075901  p :     3.252779
      px      :     1.107877
      py      :     1.069001
  2 C s       :     2.970972  s :     2.970972
      pz      :     1.031939  p :     3.245560
      px      :     1.131266
      py      :     1.082355
  3 C s       :     2.984317  s :     2.984317
      pz      :     1.030335  p :     3.040228
      px      :     1.120468
      py      :     0.889425
  4 O s       :     3.592160  s :     3.592160
      pz      :     1.335917  p :     4.708523
      px      :     1.796897
      py      :     1.575709
  5 H s       :     0.900997  s :     0.900997
  6 H s       :     0.883004  s :     0.883004
  7 H s       :     0.885878  s :     0.885878
  8 H s       :     0.884594  s :     0.884594
  9 H s       :     0.884592  s :     0.884592
 10 H s       :     0.889473  s :     0.889473
 11 H s       :     0.896155  s :     0.896155
 12 C s       :     2.980874  s :     2.980874
      pz      :     0.925215  p :     3.063137
      px      :     1.033304
      py      :     1.104618
 13 H s       :     0.909159  s :     0.909159
 14 H s       :     0.897141  s :     0.897141
 15 O s       :     3.594744  s :     3.594744
      pz      :     1.535635  p :     4.743735
      px      :     1.366757
      py      :     1.841343
 16 C s       :     2.966531  s :     2.966531
      pz      :     0.895008  p :     3.016358
      px      :     1.013060
      py      :     1.108290
 17 C s       :     2.952853  s :     2.952853
      pz      :     1.113848  p :     3.007598
      px      :     0.923504
      py      :     0.970247
 18 C s       :     2.983855  s :     2.983855
      pz      :     1.048406  p :     3.258793
      px      :     1.130626
      py      :     1.079761
 19 C s       :     2.985337  s :     2.985337
      pz      :     1.073866  p :     3.053236
      px      :     1.064838
      py      :     0.914532
 20 O s       :     3.604501  s :     3.604501
      pz      :     1.566694  p :     4.728223
      px      :     1.665520
      py      :     1.496008
 21 H s       :     0.879497  s :     0.879497
 22 O s       :     3.614032  s :     3.614032
      pz      :     1.539783  p :     4.800066
      px      :     1.539218
      py      :     1.721066
 23 H s       :     0.870340  s :     0.870340
 24 H s       :     0.872799  s :     0.872799
 25 H s       :     0.887478  s :     0.887478
 26 H s       :     0.896653  s :     0.896653
 27 H s       :     0.897039  s :     0.897039
 28 H s       :     0.718839  s :     0.718839


                      *****************************
                      * MAYER POPULATION ANALYSIS *
                      *****************************

  NA   - Mulliken gross atomic population
  ZA   - Total nuclear charge
  QA   - Mulliken gross atomic charge
  VA   - Mayer's total valence
  BVA  - Mayer's bonded valence
  FA   - Mayer's free valence

  ATOM       NA         ZA         QA         VA         BVA        FA
  0 C      5.6926     6.0000     0.3074     3.6682     3.6682     0.0000
  1 C      6.2813     6.0000    -0.2813     3.7111     3.7111    -0.0000
  2 C      6.2972     6.0000    -0.2972     3.7650     3.7650    -0.0000
  3 C      6.0019     6.0000    -0.0019     3.6577     3.6577    -0.0000
  4 O      8.5012     8.0000    -0.5012     1.8079     1.8079     0.0000
  5 H      0.8546     1.0000     0.1454     0.9315     0.9315     0.0000
  6 H      0.8504     1.0000     0.1496     0.9325     0.9325    -0.0000
  7 H      0.8560     1.0000     0.1440     0.9399     0.9399    -0.0000
  8 H      0.8558     1.0000     0.1442     0.9366     0.9366    -0.0000
  9 H      0.8445     1.0000     0.1555     0.9353     0.9353     0.0000
 10 H      0.8437     1.0000     0.1563     0.9252     0.9252    -0.0000
 11 H      0.8559     1.0000     0.1441     0.9288     0.9288     0.0000
 12 C      6.0142     6.0000    -0.0142     3.6233     3.6233    -0.0000
 13 H      0.8713     1.0000     0.1287     0.9322     0.9322     0.0000
 14 H      0.8591     1.0000     0.1409     0.9334     0.9334    -0.0000
 15 O      8.5162     8.0000    -0.5162     1.7238     1.7238     0.0000
 16 C      5.9428     6.0000     0.0572     3.6018     3.6018    -0.0000
 17 C      5.9087     6.0000     0.0913     3.6326     3.6326    -0.0000
 18 C      6.3018     6.0000    -0.3018     3.6950     3.6950     0.0000
 19 C      6.0312     6.0000    -0.0312     3.6636     3.6636     0.0000
 20 O      8.5288     8.0000    -0.5288     1.7596     1.7596     0.0000
 21 H      0.8306     1.0000     0.1694     0.9343     0.9343     0.0000
 22 O      8.6029     8.0000    -0.6029     1.7451     1.7451     0.0000
 23 H      0.8198     1.0000     0.1802     0.9367     0.9367    -0.0000
 24 H      0.8372     1.0000     0.1628     0.9397     0.9397    -0.0000
 25 H      0.8560     1.0000     0.1440     0.9352     0.9352     0.0000
 26 H      0.8543     1.0000     0.1457     0.9275     0.9275     0.0000
 27 H      0.8528     1.0000     0.1472     0.9284     0.9284     0.0000
 28 H      0.6377     1.0000     0.3623     0.8336     0.8336    -0.0000

  Mayer bond orders larger than 0.100000
B(  0-C ,  1-C ) :   0.9265 B(  0-C ,  4-O ) :   0.9435 B(  0-C ,  5-H ) :   0.9199 
B(  0-C , 15-O ) :   0.8255 B(  1-C ,  2-C ) :   0.9512 B(  1-C ,  6-H ) :   0.9340 
B(  1-C ,  7-H ) :   0.9324 B(  2-C ,  3-C ) :   0.9557 B(  2-C ,  8-H ) :   0.9450 
B(  2-C ,  9-H ) :   0.9456 B(  3-C ,  4-O ) :   0.8338 B(  3-C , 10-H ) :   0.9343 
B(  3-C , 11-H ) :   0.9396 B( 12-C , 13-H ) :   0.9185 B( 12-C , 14-H ) :   0.9155 
B( 12-C , 15-O ) :   0.8313 B( 12-C , 16-C ) :   0.8981 B( 16-C , 17-C ) :   0.9159 
B( 16-C , 20-O ) :   0.8424 B( 16-C , 21-H ) :   0.9247 B( 17-C , 18-C ) :   0.9117 
B( 17-C , 22-O ) :   0.8907 B( 17-C , 23-H ) :   0.9232 B( 18-C , 19-C ) :   0.9402 
B( 18-C , 24-H ) :   0.9376 B( 18-C , 25-H ) :   0.9353 B( 19-C , 20-O ) :   0.8437 
B( 19-C , 26-H ) :   0.9356 B( 19-C , 27-H ) :   0.9383 B( 22-O , 28-H ) :   0.7957 


-------
TIMINGS
-------

Total SCF time: 0 days 0 hours 1 min 36 sec 

Total time                  ....      96.454 sec
Sum of individual times     ....      83.782 sec  ( 86.9%)

Fock matrix formation       ....      77.219 sec  ( 80.1%)
  XC integration            ....      25.788 sec  ( 33.4% of F)
    Basis function eval.    ....       1.591 sec  (  6.2% of XC)
    Density eval.           ....       1.105 sec  (  4.3% of XC)
    XC-Functional eval.     ....       0.325 sec  (  1.3% of XC)
    XC-Potential eval.      ....       0.724 sec  (  2.8% of XC)
Diagonalization             ....       0.031 sec  (  0.0%)
Density matrix formation    ....       0.004 sec  (  0.0%)
Population analysis         ....       0.046 sec  (  0.0%)
Initial guess               ....       0.008 sec  (  0.0%)
Orbital Transformation      ....       0.000 sec  (  0.0%)
Orbital Orthonormalization  ....       0.004 sec  (  0.0%)
DIIS solution               ....       0.002 sec  (  0.0%)
SOSCF solution              ....       0.273 sec  (  0.3%)
Grid generation             ....       6.199 sec  (  6.4%)

-------------------------   --------------------
FINAL SINGLE POINT ENERGY      -652.861924508601
-------------------------   --------------------

                                *** OPTIMIZATION RUN DONE ***

                            ***************************************
                            *     ORCA property calculations      *
                            ***************************************

                                    ---------------------
                                    Active property flags
                                    ---------------------
   (+) Dipole Moment


------------------------------------------------------------------------------
                       ORCA ELECTRIC PROPERTIES CALCULATION
------------------------------------------------------------------------------

Dipole Moment Calculation                       ... on
Quadrupole Moment Calculation                   ... off
Polarizability Calculation                      ... off
GBWName                                         ... project_8050/ensemble_180_150.gbw
Electron density file                           ... project_8050/ensemble_180_150.scfp
The origin for moment calculation is the CENTER OF MASS  = (-44.104259, 50.951724 86.815842)

-------------
DIPOLE MOMENT
-------------
                                X             Y             Z
Electronic contribution:     -2.69102      -5.99522      -0.02461
Nuclear contribution   :      3.39138       7.49856      -0.56898
                        -----------------------------------------
Total Dipole Moment    :      0.70035       1.50334      -0.59359
                        -----------------------------------------
Magnitude (a.u.)       :      1.76150
Magnitude (Debye)      :      4.47737



--------------------
Rotational spectrum 
--------------------
 
Rotational constants in cm-1:     0.055941     0.012239     0.011757 
Rotational constants in MHz :  1677.077802   366.923704   352.452490 

 Dipole components along the rotational axes: 
x,y,z [a.u.] :     0.389229    -1.406633     0.986282 
x,y,z [Debye]:     0.989342    -3.575378     2.506929 

 

Timings for individual modules:

Sum of individual times         ...     2384.151 sec (=  39.736 min)
GTO integral calculation        ...       25.337 sec (=   0.422 min)   1.1 %
SCF iterations                  ...     2180.941 sec (=  36.349 min)  91.5 %
SCF Gradient evaluation         ...      169.030 sec (=   2.817 min)   7.1 %
Geometry relaxation             ...        8.843 sec (=   0.147 min)   0.4 %
                             ****ORCA TERMINATED NORMALLY****
TOTAL RUN TIME: 0 days 0 hours 40 minutes 30 seconds 820 msec
