
                                 *****************
                                 * O   R   C   A *
                                 *****************

           --- An Ab Initio, DFT and Semiempirical electronic structure package ---

                  #######################################################
                  #                        -***-                        #
                  #          Department of theory and spectroscopy      #
                  #               Directorship: Frank Neese             #
                  #        Max Planck Institute fuer Kohlenforschung    #
                  #                Kaiser Wilhelm Platz 1               #
                  #                 D-45470 Muelheim/Ruhr               #
                  #                      Germany                        #
                  #                                                     #
                  #                  All rights reserved                #
                  #                        -***-                        #
                  #######################################################


                         Program Version 4.2.0 -  RELEASE  -


 With contributions from (in alphabetic order):
   Daniel Aravena         : Magnetic Suceptibility
   Michael Atanasov       : Ab Initio Ligand Field Theory (pilot matlab implementation)
   Alexander A. Auer      : GIAO ZORA, VPT2
   Ute Becker             : Parallelization
   Giovanni Bistoni       : ED, misc. LED, open-shell LED, HFLED
   Martin Brehm           : Molecular dynamics
   Dmytro Bykov           : SCF Hessian
   Vijay G. Chilkuri      : MRCI spin determinant printing, contributions to CSF-ICE
   Dipayan Datta          : RHF DLPNO-CCSD density
   Achintya Kumar Dutta   : EOM-CC, STEOM-CC
   Dmitry Ganyushin       : Spin-Orbit,Spin-Spin,Magnetic field MRCI
   Miquel Garcia          : C-PCM Hessian, Gaussian charge scheme
   Yang Guo               : DLPNO-NEVPT2, CIM, IAO-localization
   Andreas Hansen         : Spin unrestricted coupled pair/coupled cluster methods
   Benjamin Helmich-Paris : CASSCF linear response (MC-RPA)
   Lee Huntington         : MR-EOM, pCC
   Robert Izsak           : Overlap fitted RIJCOSX, COSX-SCS-MP3, EOM
   Christian Kollmar      : KDIIS, OOCD, Brueckner-CCSD(T), CCSD density
   Simone Kossmann        : Meta GGA functionals, TD-DFT gradient, OOMP2, MP2 Hessian
   Martin Krupicka        : AUTO-CI
   Lucas Lang             : DCDCAS
   Dagmar Lenk            : GEPOL surface, SMD
   Dimitrios Liakos       : Extrapolation schemes; Compound Job, initial MDCI parallelization
   Dimitrios Manganas     : Further ROCIS development; embedding schemes
   Dimitrios Pantazis     : SARC Basis sets
   Taras Petrenko         : DFT Hessian,TD-DFT gradient, ASA, ECA, R-Raman, ABS, FL, XAS/XES, NRVS
   Peter Pinski           : DLPNO-MP2, DLPNO-MP2 Gradient
   Christoph Reimann      : Effective Core Potentials
   Marius Retegan         : Local ZFS, SOC
   Christoph Riplinger    : Optimizer, TS searches, QM/MM, DLPNO-CCSD(T), (RO)-DLPNO pert. Triples
   Tobias Risthaus        : Range-separated hybrids, TD-DFT gradient, RPA, STAB
   Michael Roemelt        : Original ROCIS implementation
   Masaaki Saitow         : Open-shell DLPNO-CCSD energy and density
   Barbara Sandhoefer     : DKH picture change effects
   Avijit Sen             : IP-ROCIS
   Kantharuban Sivalingam : CASSCF convergence, NEVPT2, FIC-MRCI
   Bernardo de Souza      : ESD, SOC TD-DFT
   Georgi Stoychev        : AutoAux, RI-MP2 NMR
   Willem Van den Heuvel  : Paramagnetic NMR
   Boris Wezisla          : Elementary symmetry handling
   Frank Wennmohs         : Technical directorship


 We gratefully acknowledge several colleagues who have allowed us to
 interface, adapt or use parts of their codes:
   Stefan Grimme, W. Hujo, H. Kruse,             : VdW corrections, initial TS optimization,
                  C. Bannwarth                     DFT functionals, gCP, sTDA/sTD-DF
   Ed Valeev, F. Pavosevic, A. Kumar             : LibInt (2-el integral package), F12 methods
   Garnet Chan, S. Sharma, J. Yang, R. Olivares  : DMRG
   Ulf Ekstrom                                   : XCFun DFT Library
   Mihaly Kallay                                 : mrcc  (arbitrary order and MRCC methods)
   Andreas Klamt, Michael Diedenhofen            : otool_cosmo (COSMO solvation model)
   Jiri Pittner, Ondrej Demel                    : Mk-CCSD
   Frank Weinhold                                : gennbo (NPA and NBO analysis)
   Christopher J. Cramer and Donald G. Truhlar   : smd solvation model
   Lars Goerigk                                  : TD-DFT with DH, B97 family of functionals
   V. Asgeirsson, H. Jonsson                     : NEB implementation
   FAccTs GmbH                                   : IRC, NEB, NEB-TS, Multilevel, MM, QM/MM, CI optimization
   S Lehtola, MJT Oliveira, MAL Marques          : LibXC Library


 Your calculation uses the libint2 library for the computation of 2-el integrals
 For citations please refer to: http://libint.valeyev.net

 Your ORCA version has been built with support for libXC version: 4.2.3
 For citations please refer to: https://tddft.org/programs/libxc/

 This ORCA versions uses:
   CBLAS   interface :  Fast vector & matrix operations
   LAPACKE interface :  Fast linear algebra routines
   SCALAPACK package :  Parallel linear algebra routines


----- Orbital basis set information -----
Your calculation utilizes the basis: 6-31G
   H-He, Li-Ne : W. J. Hehre, R. Ditchfield and J.A. Pople, J. Chem. Phys. 56, 2257 (1972).
                 Note: He and Ne are unpublished basis sets taken from the Gaussian program.
                 Note: Li and B from J. D. Dill and J. A. Pople, J. Chem. Phys. 62, 2921 (1975).
   Na - Ar     : M. M. Francl, W. J. Pietro, W. J. Hehre, J. S. Binkley, M. S. Gordon, 
                 D. J. DeFrees and J. A. Pople, J. Chem. Phys. 77, 3654 (1982).
   K - Zn      : V. A. Rassolov, J. A. Pople, M. A. Ratner, and T. L. Windus, J. Chem. Phys. 109, 1223 (1998).

================================================================================
                                        WARNINGS
                       Please study these warnings very carefully!
================================================================================


WARNING: Geometry Optimization
  ===> : Switching off AutoStart
         For restart on a previous wavefunction, please use MOREAD

INFO   : the flag for use of LIBINT has been found!

================================================================================
                                       INPUT FILE
================================================================================
NAME = project_8050/ensemble_165_210.inp
|  1> # Test redundant internal optimization
|  2> #
|  3> ! RKS B3LYP  Opt TightSCF SmallPrint
|  4> 
|  5> %basis
|  6>         Basis "6-31G"
|  7> end
|  8> 
|  9> %geom
| 10> Constraints
| 11> { D 4  0  15  12  165.0   C } # D for Dihedral angle
| 12> { D 0  15  12  16  210.0   C } # D for Dihedral angle
| 13> { D 0  4  3  2   C } # D for Dihedral angle
| 14> { D 4  3  2  1   C } # D for Dihedral angle
| 15> { D 3  2  1  0   C } # D for Dihedral angle
| 16> { D 2  1  0  4   C } # D for Dihedral angle
| 17> { D 1  0  4  3   C } # D for Dihedral angle
| 18> { D 16  20  19  18   C } # D for Dihedral angle
| 19> { D 20  19  18  17   C } # D for Dihedral angle
| 20> { D 19  18  17  16   C } # D for Dihedral angle
| 21> { D 18  17  16  20   C } # D for Dihedral angle
| 22> { D 17  16  20  19   C } # D for Dihedral angle
| 23> { D 15  12  16  20   C } # D for Dihedral angle
| 24> end
| 25> end
| 26> 
| 27> 
| 28> #%pal 
| 29> #nprocs 8
| 30> #end
| 31> 
| 32> * xyz 0 1
| 33> C  -21.048   26.222   46.251
| 34> C  -20.361   27.558   45.944
| 35> C  -20.329   28.222   47.341
| 36> C  -20.110   27.022   48.296
| 37> O  -20.473   25.807   47.535
| 38> H  -20.833   25.428   45.533
| 39> H  -19.344   27.382   45.576
| 40> H  -20.898   28.157   45.201
| 41> H  -19.543   28.978   47.434
| 42> H  -21.289   28.710   47.548
| 43> H  -20.733   27.082   49.195
| 44> H  -19.064   26.913   48.597
| 45> C  -23.260   27.170   45.210
| 46> H  -22.545   27.890   44.794
| 47> H  -23.557   26.480   44.410
| 48> O  -22.586   26.394   46.375
| 49> C  -24.528   27.946   45.660
| 50> C  -24.177   29.054   46.660
| 51> C  -23.643   30.164   45.723
| 52> C  -24.522   30.009   44.457
| 53> O  -25.123   28.659   44.525
| 54> H  -25.275   27.235   46.018
| 55> O  -25.458   29.530   47.399
| 56> H  -23.444   28.741   47.410
| 57> H  -23.718   31.163   46.163
| 58> H  -22.588   29.980   45.486
| 59> H  -23.944   30.098   43.531
| 60> H  -25.346   30.727   44.430
| 61> H  -26.209   29.850   46.666
| 62> *
| 63> 
| 64>                          ****END OF INPUT****
================================================================================

                       *****************************
                       * Geometry Optimization Run *
                       *****************************

Geometry optimization settings:
Update method            Update   .... BFGS
Choice of coordinates    CoordSys .... Z-matrix Internals
Initial Hessian          InHess   .... Almoef's Model

Convergence Tolerances:
Energy Change            TolE     ....  5.0000e-06 Eh
Max. Gradient            TolMAXG  ....  3.0000e-04 Eh/bohr
RMS Gradient             TolRMSG  ....  1.0000e-04 Eh/bohr
Max. Displacement        TolMAXD  ....  4.0000e-03 bohr
RMS Displacement         TolRMSD  ....  2.0000e-03 bohr
Strict Convergence                ....  False
------------------------------------------------------------------------------
                        ORCA OPTIMIZATION COORDINATE SETUP
------------------------------------------------------------------------------

The optimization will be done in new redundant internal coordinates
Making redundant internal coordinates   ...  (new redundants) done
Evaluating the initial hessian          ...  (Almloef) done
Evaluating the coordinates              ...  done
Calculating the B-matrix                .... done
Calculating the G-matrix                .... done
Diagonalizing the G-matrix              .... done
Imposing constraints:
 Iter   0:  RMS(Cart)=    0.0000992592 RMS(Int)=    0.0000345747
 Iter   1:  RMS(Cart)=    0.0000520738 RMS(Int)=    0.0000188087
 Iter   2:  RMS(Cart)=    0.0000282597 RMS(Int)=    0.0000110678
 Iter   3:  RMS(Cart)=    0.0000159143 RMS(Int)=    0.0000073561
 Iter   4:  RMS(Cart)=    0.0000093389 RMS(Int)=    0.0000056346
 Iter   5:  RMS(Cart)=    0.0000057437 RMS(Int)=    0.0000048308
 Iter   6:  RMS(Cart)=    0.0000037299 RMS(Int)=    0.0000044198
 Iter   7:  RMS(Cart)=    0.0000025778 RMS(Int)=    0.0000041734
 Iter   8:  RMS(Cart)=    0.0000019066 RMS(Int)=    0.0000039985
 Iter   9:  RMS(Cart)=    0.0000015085 RMS(Int)=    0.0000038573
 Iter  10:  RMS(Cart)=    0.0000012665 RMS(Int)=    0.0000037333
 Iter  11:  RMS(Cart)=    0.0000011140 RMS(Int)=    0.0000036194
 Iter  12:  RMS(Cart)=    0.0000010129 RMS(Int)=    0.0000035121
 Iter  13:  RMS(Cart)=    0.0000009417 RMS(Int)=    0.0000034096
 Iter  14:  RMS(Cart)=    0.0000008883 RMS(Int)=    0.0000033111
 Iter  15:  RMS(Cart)=    0.0000008457 RMS(Int)=    0.0000032160
 Iter  16:  RMS(Cart)=    0.0000008100 RMS(Int)=    0.0000031242
 Iter  17:  RMS(Cart)=    0.0000007789 RMS(Int)=    0.0000030353
 Iter  18:  RMS(Cart)=    0.0000007509 RMS(Int)=    0.0000029493
 Iter  19:  RMS(Cart)=    0.0000007252 RMS(Int)=    0.0000028660
 Iter  20:  RMS(Cart)=    0.0000007012 RMS(Int)=    0.0000027853
 Iter  21:  RMS(Cart)=    0.0000006786 RMS(Int)=    0.0000027072
 Iter  22:  RMS(Cart)=    0.0000006571 RMS(Int)=    0.0000026314
 Iter  23:  RMS(Cart)=    0.0000006366 RMS(Int)=    0.0000025581
 Iter  24:  RMS(Cart)=    0.0000006169 RMS(Int)=    0.0000024870
 Iter  25:  RMS(Cart)=    0.0000005979 RMS(Int)=    0.0000024181
 Iter  26:  RMS(Cart)=    0.0000005797 RMS(Int)=    0.0000023513
 Iter  27:  RMS(Cart)=    0.0000005621 RMS(Int)=    0.0000022866
 Iter  28:  RMS(Cart)=    0.0000005451 RMS(Int)=    0.0000022239
 Iter  29:  RMS(Cart)=    0.0000005286 RMS(Int)=    0.0000021631
 Iter  30:  RMS(Cart)=    0.0000005128 RMS(Int)=    0.0000021041
 Iter  31:  RMS(Cart)=    0.0000004974 RMS(Int)=    0.0000020470
 Iter  32:  RMS(Cart)=    0.0000004825 RMS(Int)=    0.0000019915
 Iter  33:  RMS(Cart)=    0.0000004681 RMS(Int)=    0.0000019378
 Iter  34:  RMS(Cart)=    0.0000004542 RMS(Int)=    0.0000018857
 Iter  35:  RMS(Cart)=    0.0000004407 RMS(Int)=    0.0000018352
 Iter  36:  RMS(Cart)=    0.0000004276 RMS(Int)=    0.0000017862
 Iter  37:  RMS(Cart)=    0.0000004150 RMS(Int)=    0.0000017387
 Iter  38:  RMS(Cart)=    0.0000004027 RMS(Int)=    0.0000016926
 Iter  39:  RMS(Cart)=    0.0000003909 RMS(Int)=    0.0000016479
 Iter  40:  RMS(Cart)=    0.0000003794 RMS(Int)=    0.0000016045
 Iter  41:  RMS(Cart)=    0.0000003682 RMS(Int)=    0.0000015624
 Iter  42:  RMS(Cart)=    0.0000003575 RMS(Int)=    0.0000015216
 Iter  43:  RMS(Cart)=    0.0000003470 RMS(Int)=    0.0000014820
 Iter  44:  RMS(Cart)=    0.0000003369 RMS(Int)=    0.0000014435
 Iter  45:  RMS(Cart)=    0.0000003271 RMS(Int)=    0.0000014063
 Iter  46:  RMS(Cart)=    0.0000003176 RMS(Int)=    0.0000013701
 Iter  47:  RMS(Cart)=    0.0000003084 RMS(Int)=    0.0000013349
 Iter  48:  RMS(Cart)=    0.0000002994 RMS(Int)=    0.0000013008
 Iter  49:  RMS(Cart)=    0.0000002908 RMS(Int)=    0.0000012677
 Iter  50:  RMS(Cart)=    0.0000002824 RMS(Int)=    0.0000012356
 Iter  51:  RMS(Cart)=    0.0000002743 RMS(Int)=    0.0000012044
 Iter  52:  RMS(Cart)=    0.0000002664 RMS(Int)=    0.0000011742
 Iter  53:  RMS(Cart)=    0.0000002588 RMS(Int)=    0.0000011448
 Iter  54:  RMS(Cart)=    0.0000002514 RMS(Int)=    0.0000011162
 Iter  55:  RMS(Cart)=    0.0000002442 RMS(Int)=    0.0000010885
 Iter  56:  RMS(Cart)=    0.0000002372 RMS(Int)=    0.0000010616
 Iter  57:  RMS(Cart)=    0.0000002305 RMS(Int)=    0.0000010355
 Iter  58:  RMS(Cart)=    0.0000002240 RMS(Int)=    0.0000010101
 Iter  59:  RMS(Cart)=    0.0000002176 RMS(Int)=    0.0000009854
 Iter  60:  RMS(Cart)=    0.0000002115 RMS(Int)=    0.0000009615
 Iter  61:  RMS(Cart)=    0.0000002055 RMS(Int)=    0.0000009382
 Iter  62:  RMS(Cart)=    0.0000001997 RMS(Int)=    0.0000009156
 Iter  63:  RMS(Cart)=    0.0000001941 RMS(Int)=    0.0000008937
 Iter  64:  RMS(Cart)=    0.0000001887 RMS(Int)=    0.0000008724
 Iter  65:  RMS(Cart)=    0.0000001834 RMS(Int)=    0.0000008516
 Iter  66:  RMS(Cart)=    0.0000001783 RMS(Int)=    0.0000008315
 Iter  67:  RMS(Cart)=    0.0000001733 RMS(Int)=    0.0000008119
 Iter  68:  RMS(Cart)=    0.0000001685 RMS(Int)=    0.0000007929
 Iter  69:  RMS(Cart)=    0.0000001638 RMS(Int)=    0.0000007745
 Iter  70:  RMS(Cart)=    0.0000001593 RMS(Int)=    0.0000007565
 Iter  71:  RMS(Cart)=    0.0000001549 RMS(Int)=    0.0000007390
 Iter  72:  RMS(Cart)=    0.0000001506 RMS(Int)=    0.0000007221
 Iter  73:  RMS(Cart)=    0.0000001465 RMS(Int)=    0.0000007056
 Iter  74:  RMS(Cart)=    0.0000001425 RMS(Int)=    0.0000006895
 Iter  75:  RMS(Cart)=    0.0000001386 RMS(Int)=    0.0000006739
 Iter  76:  RMS(Cart)=    0.0000001348 RMS(Int)=    0.0000006588
 Iter  77:  RMS(Cart)=    0.0000001311 RMS(Int)=    0.0000006440
 Iter  78:  RMS(Cart)=    0.0000001276 RMS(Int)=    0.0000006297
 Iter  79:  RMS(Cart)=    0.0000001241 RMS(Int)=    0.0000006157
 Iter  80:  RMS(Cart)=    0.0000001208 RMS(Int)=    0.0000006022
 Iter  81:  RMS(Cart)=    0.0000001175 RMS(Int)=    0.0000005890
 Iter  82:  RMS(Cart)=    0.0000001143 RMS(Int)=    0.0000005762
 Iter  83:  RMS(Cart)=    0.0000001113 RMS(Int)=    0.0000005637
 Iter  84:  RMS(Cart)=    0.0000001083 RMS(Int)=    0.0000005515
 Iter  85:  RMS(Cart)=    0.0000001054 RMS(Int)=    0.0000005397
 Iter  86:  RMS(Cart)=    0.0000001026 RMS(Int)=    0.0000005282
 Iter  87:  RMS(Cart)=    0.0000000999 RMS(Int)=    0.0000005170
 Iter  88:  RMS(Cart)=    0.0000000972 RMS(Int)=    0.0000005061
 Iter  89:  RMS(Cart)=    0.0000000946 RMS(Int)=    0.0000004955
 Iter  90:  RMS(Cart)=    0.0000000921 RMS(Int)=    0.0000004852
 Iter  91:  RMS(Cart)=    0.0000000897 RMS(Int)=    0.0000004751
 Iter  92:  RMS(Cart)=    0.0000000874 RMS(Int)=    0.0000004654
 Iter  93:  RMS(Cart)=    0.0000000851 RMS(Int)=    0.0000004558
 Iter  94:  RMS(Cart)=    0.0000000828 RMS(Int)=    0.0000004466
 Iter  95:  RMS(Cart)=    0.0000000807 RMS(Int)=    0.0000004375
 Iter  96:  RMS(Cart)=    0.0000000786 RMS(Int)=    0.0000004287
 Iter  97:  RMS(Cart)=    0.0000000765 RMS(Int)=    0.0000004202
 Iter  98:  RMS(Cart)=    0.0000000746 RMS(Int)=    0.0000004118
 Iter  99:  RMS(Cart)=    0.0000000726 RMS(Int)=    0.0000004037
 RMS(Cart) too big - taking linear step, building new B-matrix and trying again
Imposing constraints:
 Iter   0:  RMS(Cart)=    0.0000520736 RMS(Int)=    0.0000188087
 Iter   1:  RMS(Cart)=    0.0000282596 RMS(Int)=    0.0000110679
 Iter   2:  RMS(Cart)=    0.0000159143 RMS(Int)=    0.0000073562
 Iter   3:  RMS(Cart)=    0.0000093388 RMS(Int)=    0.0000056347
 Iter   4:  RMS(Cart)=    0.0000057437 RMS(Int)=    0.0000048310
 Iter   5:  RMS(Cart)=    0.0000037299 RMS(Int)=    0.0000044200
 Iter   6:  RMS(Cart)=    0.0000025778 RMS(Int)=    0.0000041736
 Iter   7:  RMS(Cart)=    0.0000019067 RMS(Int)=    0.0000039988
 Iter   8:  RMS(Cart)=    0.0000015086 RMS(Int)=    0.0000038575
 Iter   9:  RMS(Cart)=    0.0000012666 RMS(Int)=    0.0000037335
 Iter  10:  RMS(Cart)=    0.0000011141 RMS(Int)=    0.0000036196
 Iter  11:  RMS(Cart)=    0.0000010130 RMS(Int)=    0.0000035123
 Iter  12:  RMS(Cart)=    0.0000009417 RMS(Int)=    0.0000034098
 Iter  13:  RMS(Cart)=    0.0000008883 RMS(Int)=    0.0000033113
 Iter  14:  RMS(Cart)=    0.0000008457 RMS(Int)=    0.0000032163
 Iter  15:  RMS(Cart)=    0.0000008100 RMS(Int)=    0.0000031244
 Iter  16:  RMS(Cart)=    0.0000007789 RMS(Int)=    0.0000030356
 Iter  17:  RMS(Cart)=    0.0000007509 RMS(Int)=    0.0000029495
 Iter  18:  RMS(Cart)=    0.0000007252 RMS(Int)=    0.0000028662
 Iter  19:  RMS(Cart)=    0.0000007012 RMS(Int)=    0.0000027855
 Iter  20:  RMS(Cart)=    0.0000006786 RMS(Int)=    0.0000027074
 Iter  21:  RMS(Cart)=    0.0000006571 RMS(Int)=    0.0000026316
 Iter  22:  RMS(Cart)=    0.0000006366 RMS(Int)=    0.0000025583
 Iter  23:  RMS(Cart)=    0.0000006169 RMS(Int)=    0.0000024872
 Iter  24:  RMS(Cart)=    0.0000005980 RMS(Int)=    0.0000024183
 Iter  25:  RMS(Cart)=    0.0000005797 RMS(Int)=    0.0000023515
 Iter  26:  RMS(Cart)=    0.0000005621 RMS(Int)=    0.0000022868
 Iter  27:  RMS(Cart)=    0.0000005451 RMS(Int)=    0.0000022240
 Iter  28:  RMS(Cart)=    0.0000005287 RMS(Int)=    0.0000021632
 Iter  29:  RMS(Cart)=    0.0000005128 RMS(Int)=    0.0000021043
 Iter  30:  RMS(Cart)=    0.0000004974 RMS(Int)=    0.0000020471
 Iter  31:  RMS(Cart)=    0.0000004825 RMS(Int)=    0.0000019917
 Iter  32:  RMS(Cart)=    0.0000004682 RMS(Int)=    0.0000019380
 Iter  33:  RMS(Cart)=    0.0000004542 RMS(Int)=    0.0000018859
 Iter  34:  RMS(Cart)=    0.0000004407 RMS(Int)=    0.0000018354
 Iter  35:  RMS(Cart)=    0.0000004277 RMS(Int)=    0.0000017864
 Iter  36:  RMS(Cart)=    0.0000004150 RMS(Int)=    0.0000017388
 Iter  37:  RMS(Cart)=    0.0000004028 RMS(Int)=    0.0000016927
 Iter  38:  RMS(Cart)=    0.0000003909 RMS(Int)=    0.0000016480
 Iter  39:  RMS(Cart)=    0.0000003794 RMS(Int)=    0.0000016047
 Iter  40:  RMS(Cart)=    0.0000003683 RMS(Int)=    0.0000015626
 Iter  41:  RMS(Cart)=    0.0000003575 RMS(Int)=    0.0000015217
 Iter  42:  RMS(Cart)=    0.0000003470 RMS(Int)=    0.0000014821
 Iter  43:  RMS(Cart)=    0.0000003369 RMS(Int)=    0.0000014437
 Iter  44:  RMS(Cart)=    0.0000003271 RMS(Int)=    0.0000014064
 Iter  45:  RMS(Cart)=    0.0000003176 RMS(Int)=    0.0000013702
 Iter  46:  RMS(Cart)=    0.0000003084 RMS(Int)=    0.0000013351
 Iter  47:  RMS(Cart)=    0.0000002995 RMS(Int)=    0.0000013010
 Iter  48:  RMS(Cart)=    0.0000002908 RMS(Int)=    0.0000012679
 Iter  49:  RMS(Cart)=    0.0000002824 RMS(Int)=    0.0000012357
 Iter  50:  RMS(Cart)=    0.0000002743 RMS(Int)=    0.0000012046
 Iter  51:  RMS(Cart)=    0.0000002664 RMS(Int)=    0.0000011743
 Iter  52:  RMS(Cart)=    0.0000002588 RMS(Int)=    0.0000011449
 Iter  53:  RMS(Cart)=    0.0000002514 RMS(Int)=    0.0000011163
 Iter  54:  RMS(Cart)=    0.0000002442 RMS(Int)=    0.0000010886
 Iter  55:  RMS(Cart)=    0.0000002373 RMS(Int)=    0.0000010617
 Iter  56:  RMS(Cart)=    0.0000002305 RMS(Int)=    0.0000010356
 Iter  57:  RMS(Cart)=    0.0000002240 RMS(Int)=    0.0000010102
 Iter  58:  RMS(Cart)=    0.0000002176 RMS(Int)=    0.0000009856
CONVERGED
Small eigenvalue found = 7.541e-03
Small eigenvalue found = 8.736e-03
Small eigenvalue found = 1.415e-02
The first mode is                       ....   91
The number of degrees of freedom        ....   81
Storing new coordinates                 .... done

    -----------------------------------------------------------------
                    Redundant Internal Coordinates


    -----------------------------------------------------------------
         Definition                    Initial Value    Approx d2E/dq
    -----------------------------------------------------------------
      1. B(C   1,C   0)                  1.5333         0.369027   
      2. B(C   2,C   1)                  1.5471         0.350825   
      3. B(C   3,C   2)                  1.5492         0.348147   
      4. B(O   4,C   0)                  1.4668         0.422031   
      5. B(O   4,C   3)                  1.4789         0.403699   
      6. B(H   5,C   0)                  1.0919         0.357632   
      7. B(H   6,C   1)                  1.0958         0.352561   
      8. B(H   7,C   1)                  1.0951         0.353431   
      9. B(H   8,C   2)                  1.0945         0.354166   
     10. B(H   9,C   2)                  1.0966         0.351438   
     11. B(H  10,C   3)                  1.0954         0.353010   
     12. B(H  11,C   3)                  1.0939         0.354989   
     13. B(H  13,C  12)                  1.0967         0.351386   
     14. B(H  14,C  12)                  1.0974         0.350430   
     15. B(O  15,C   0)                  1.5525         0.307993   
     16. B(O  15,C  12)                  1.5536         0.306803   
     17. B(C  16,C  12)                  1.5532         0.343026   
     18. B(C  17,C  16)                  1.5333         0.369137   
     19. B(C  18,C  17)                  1.5477         0.350119   
     20. B(C  19,C  18)                  1.5490         0.348380   
     21. B(O  20,C  16)                  1.4665         0.422500   
     22. B(O  20,C  19)                  1.4793         0.403093   
     23. B(H  21,C  16)                  1.0916         0.357927   
     24. B(O  22,C  17)                  1.5536         0.306810   
     25. B(H  23,C  17)                  1.0944         0.354298   
     26. B(H  24,C  18)                  1.0942         0.354615   
     27. B(H  25,C  18)                  1.0968         0.351169   
     28. B(H  26,C  19)                  1.0952         0.353276   
     29. B(H  27,C  19)                  1.0933         0.355806   
     30. B(H  28,O  22)                  1.0971         0.314187   
     31. A(O   4,C   0,H   5)          107.0225         0.328541   
     32. A(C   1,C   0,O  15)          111.3011         0.348740   
     33. A(C   1,C   0,O   4)          104.2482         0.367935   
     34. A(O   4,C   0,O  15)          110.4737         0.354548   
     35. A(C   1,C   0,H   5)          114.4370         0.323302   
     36. A(H   5,C   0,O  15)          109.1584         0.312058   
     37. A(C   0,C   1,C   2)          101.6798         0.358729   
     38. A(C   2,C   1,H   7)          112.8316         0.320016   
     39. A(C   2,C   1,H   6)          110.6710         0.319888   
     40. A(C   0,C   1,H   6)          110.0676         0.322546   
     41. A(H   6,C   1,H   7)          108.3682         0.289027   
     42. A(C   0,C   1,H   7)          113.1242         0.322677   
     43. A(C   1,C   2,H   8)          112.8319         0.320125   
     44. A(C   1,C   2,C   3)          103.1263         0.355196   
     45. A(C   1,C   2,H   9)          110.0801         0.319721   
     46. A(C   3,C   2,H   9)          110.6153         0.319321   
     47. A(C   3,C   2,H   8)          112.4040         0.319725   
     48. A(H   8,C   2,H   9)          107.7727         0.288977   
     49. A(O   4,C   3,H  10)          109.1297         0.325449   
     50. A(C   2,C   3,H  10)          112.5253         0.319554   
     51. A(C   2,C   3,O   4)          106.5278         0.361529   
     52. A(O   4,C   3,H  11)          107.1236         0.325748   
     53. A(H  10,C   3,H  11)          108.8728         0.289284   
     54. A(C   2,C   3,H  11)          112.4566         0.319846   
     55. A(C   0,O   4,C   3)          108.3150         0.371320   
     56. A(H  14,C  12,C  16)          107.7184         0.318401   
     57. A(H  13,C  12,H  14)          108.2231         0.288491   
     58. A(H  13,C  12,O  15)          109.2396         0.310975   
     59. A(H  14,C  12,O  15)          110.4884         0.310838   
     60. A(O  15,C  12,C  16)          112.7342         0.344257   
     61. A(H  13,C  12,C  16)          108.3123         0.318542   
     62. A(C   0,O  15,C  12)          115.1640         0.336058   
     63. A(C  12,C  16,C  17)          111.2910         0.357378   
     64. A(C  12,C  16,O  20)          110.4812         0.363429   
     65. A(C  17,C  16,O  20)          104.2593         0.368024   
     66. A(C  12,C  16,H  21)          109.1625         0.319503   
     67. A(C  17,C  16,H  21)          114.4202         0.323362   
     68. A(O  20,C  16,H  21)          107.0284         0.328646   
     69. A(C  16,C  17,C  18)          101.6782         0.358624   
     70. A(C  16,C  17,O  22)          110.0529         0.348532   
     71. A(C  18,C  17,O  22)          110.6551         0.345443   
     72. A(C  16,C  17,H  23)          113.1790         0.322822   
     73. A(C  18,C  17,H  23)          112.8876         0.320039   
     74. A(O  22,C  17,H  23)          108.2941         0.311391   
     75. A(C  17,C  18,C  19)          103.1354         0.355115   
     76. A(C  17,C  18,H  24)          112.8125         0.320086   
     77. A(C  19,C  18,H  24)          112.4033         0.319826   
     78. A(C  17,C  18,H  25)          110.0221         0.319576   
     79. A(C  19,C  18,H  25)          110.6361         0.319316   
     80. A(H  24,C  18,H  25)          107.8173         0.288999   
     81. A(C  18,C  19,O  20)          106.5166         0.361478   
     82. A(C  18,C  19,H  26)          112.5454         0.319628   
     83. A(O  20,C  19,H  26)          109.1133         0.325408   
     84. A(C  18,C  19,H  27)          112.4679         0.320001   
     85. A(O  20,C  19,H  27)          107.1137         0.325791   
     86. A(H  26,C  19,H  27)          108.8760         0.289422   
     87. A(C  16,O  20,C  19)          108.3269         0.371295   
     88. A(C  17,O  22,H  28)          109.6317         0.302903   
     89. D(H   7,C   1,C   0,H   5)     82.1514         0.010890   
     90. D(C   2,C   1,C   0,O  15)     79.0864         0.010890   
     91. D(H   7,C   1,C   0,O  15)    -42.1870         0.010890   
     92. D(H   6,C   1,C   0,O   4)     77.3262         0.010890   
     93. D(H   6,C   1,C   0,O  15)   -163.5728         0.010890   
     94. D(H   6,C   1,C   0,H   5)    -39.2344         0.010890   
     95. D(H   7,C   1,C   0,O   4)   -161.2880         0.010890   
     96. D(C   2,C   1,C   0,O   4)    -40.0145         0.010890 C 
     97. D(C   2,C   1,C   0,H   5)   -156.5752         0.010890   
     98. D(H   9,C   2,C   1,H   6)    160.0776         0.009912   
     99. D(H   8,C   2,C   1,C   0)    156.5478         0.009912   
    100. D(H   8,C   2,C   1,H   6)     39.6445         0.009912   
    101. D(C   3,C   2,C   1,C   0)     35.0270         0.009912 C 
    102. D(H   8,C   2,C   1,H   7)    -81.9753         0.009912   
    103. D(H   9,C   2,C   1,C   0)    -83.0191         0.009912   
    104. D(C   3,C   2,C   1,H   6)    -81.8763         0.009912   
    105. D(H   9,C   2,C   1,H   7)     38.4578         0.009912   
    106. D(C   3,C   2,C   1,H   7)    156.5039         0.009912   
    107. D(H  11,C   3,C   2,H   9)   -143.4628         0.009774   
    108. D(O   4,C   3,C   2,H   8)   -140.0066         0.009774   
    109. D(O   4,C   3,C   2,H   9)     99.4739         0.009774   
    110. D(H  10,C   3,C   2,C   1)   -137.7433         0.009774   
    111. D(H  10,C   3,C   2,H   8)    100.4468         0.009774   
    112. D(H  10,C   3,C   2,H   9)    -20.0727         0.009774   
    113. D(H  11,C   3,C   2,C   1)     98.8667         0.009774   
    114. D(O   4,C   3,C   2,C   1)    -18.1967         0.009774 C 
    115. D(H  11,C   3,C   2,H   8)    -22.9433         0.009774   
    116. D(C   3,O   4,C   0,C   1)     29.5918         0.014035 C 
    117. D(C   3,O   4,C   0,H   5)    151.2010         0.014035   
    118. D(C   3,O   4,C   0,O  15)    -90.0700         0.014035   
    119. D(C   0,O   4,C   3,C   2)     -6.8732         0.012866 C 
    120. D(C   0,O   4,C   3,H  10)    114.8547         0.012866   
    121. D(C   0,O   4,C   3,H  11)   -127.4272         0.012866   
    122. D(C   0,O  15,C  12,C  16)   -150.0000         0.007741 C 
    123. D(C  12,O  15,C   0,O   4)    165.0000         0.007793 C 
    124. D(C  12,O  15,C   0,H   5)    -77.5792         0.007793   
    125. D(C   0,O  15,C  12,H  14)     89.4144         0.007741   
    126. D(C   0,O  15,C  12,H  13)    -29.5322         0.007741   
    127. D(C  12,O  15,C   0,C   1)     49.6874         0.007793   
    128. D(C  17,C  16,C  12,H  13)    -56.3353         0.009512   
    129. D(H  21,C  16,C  12,H  14)     59.5817         0.009512   
    130. D(C  17,C  16,C  12,O  15)     64.6628         0.009512   
    131. D(O  20,C  16,C  12,H  13)     58.9895         0.009512   
    132. D(O  20,C  16,C  12,H  14)    -57.8532         0.009512   
    133. D(O  20,C  16,C  12,O  15)    179.9876         0.009512 C 
    134. D(C  17,C  16,C  12,H  14)   -173.1780         0.009512   
    135. D(H  21,C  16,C  12,H  13)    176.4243         0.009512   
    136. D(H  21,C  16,C  12,O  15)    -62.5776         0.009512   
    137. D(C  18,C  17,C  16,C  12)     79.1180         0.010896   
    138. D(C  18,C  17,C  16,O  20)    -39.9932         0.010896 C 
    139. D(C  18,C  17,C  16,H  21)   -156.5596         0.010896   
    140. D(O  22,C  17,C  16,C  12)   -163.5665         0.010896   
    141. D(O  22,C  17,C  16,O  20)     77.3222         0.010896   
    142. D(O  22,C  17,C  16,H  21)    -39.2441         0.010896   
    143. D(H  23,C  17,C  16,C  12)    -42.2490         0.010896   
    144. D(H  23,C  17,C  16,O  20)   -161.3602         0.010896   
    145. D(H  23,C  17,C  16,H  21)     82.0734         0.010896   
    146. D(H  24,C  18,C  17,H  23)    -81.9213         0.009876   
    147. D(C  19,C  18,C  17,O  22)    -81.8849         0.009876   
    148. D(C  19,C  18,C  17,H  23)    156.5633         0.009876   
    149. D(H  24,C  18,C  17,C  16)    156.5094         0.009876   
    150. D(C  19,C  18,C  17,C  16)     34.9939         0.009876 C 
    151. D(H  24,C  18,C  17,O  22)     39.6305         0.009876   
    152. D(H  25,C  18,C  17,C  16)    -83.0546         0.009876   
    153. D(H  25,C  18,C  17,O  22)    160.0666         0.009876   
    154. D(H  25,C  18,C  17,H  23)     38.5148         0.009876   
    155. D(H  27,C  19,C  18,H  25)   -143.4922         0.009786   
    156. D(O  20,C  19,C  18,H  24)   -139.9522         0.009786   
    157. D(O  20,C  19,C  18,H  25)     99.4572         0.009786   
    158. D(H  26,C  19,C  18,C  17)   -137.6913         0.009786   
    159. D(H  26,C  19,C  18,H  24)    100.5169         0.009786   
    160. D(H  26,C  19,C  18,H  25)    -20.0737         0.009786   
    161. D(H  27,C  19,C  18,C  17)     98.8903         0.009786   
    162. D(O  20,C  19,C  18,C  17)    -18.1604         0.009786 C 
    163. D(H  27,C  19,C  18,H  24)    -22.9016         0.009786   
    164. D(C  19,O  20,C  16,C  12)    -90.0596         0.014066   
    165. D(C  19,O  20,C  16,C  17)     29.6004         0.014066 C 
    166. D(C  19,O  20,C  16,H  21)    151.1989         0.014066   
    167. D(C  16,O  20,C  19,C  18)     -6.8956         0.012828 C 
    168. D(C  16,O  20,C  19,H  26)    114.8407         0.012828   
    169. D(C  16,O  20,C  19,H  27)   -127.4517         0.012828   
    170. D(H  28,O  22,C  17,C  16)    -55.8346         0.007741   
    171. D(H  28,O  22,C  17,C  18)     55.7504         0.007741   
    172. D(H  28,O  22,C  17,H  23)    179.9721         0.007741   
    -----------------------------------------------------------------

Number of atoms                         .... 29
Number of degrees of freedom            .... 172

         *************************************************************
         *                GEOMETRY OPTIMIZATION CYCLE   1            *
         *************************************************************
---------------------------------
CARTESIAN COORDINATES (ANGSTROEM)
---------------------------------
  C    -21.048028   26.221869   46.251072
  C    -20.360987   27.557818   45.943893
  C    -20.328995   28.222039   47.340797
  C    -20.110037   27.022166   48.295963
  O    -20.473050   25.807071   47.535141
  H    -20.833031   25.427790   45.533159
  H    -19.343988   27.381738   45.575929
  H    -20.897965   28.156725   45.200802
  H    -19.542980   28.978035   47.433698
  H    -21.288986   28.710092   47.547711
  H    -20.733048   27.082306   49.194947
  H    -19.064043   26.913185   48.596992
  C    -23.259922   27.170056   45.210017
  H    -22.544867   27.890053   44.794105
  H    -23.556892   26.480110   44.409960
  O    -22.586018   26.393988   46.375028
  C    -24.527982   27.945997   45.659951
  C    -24.177093   29.053938   46.660057
  C    -23.643026   30.164012   45.723181
  C    -24.521909   30.009079   44.457091
  O    -25.122890   28.659065   44.524947
  H    -25.275000   27.234960   46.017840
  O    -25.458169   29.529864   47.398972
  H    -23.444155   28.740902   47.410102
  H    -23.718084   31.162981   46.163241
  H    -22.588001   29.980047   45.486265
  H    -23.943827   30.098151   43.531150
  H    -25.345919   30.727066   44.430065
  H    -26.209108   29.849899   46.665926

----------------------------
CARTESIAN COORDINATES (A.U.)
----------------------------
  NO LB      ZA    FRAG     MASS         X           Y           Z
   0 C     6.0000    0    12.011  -39.775008   49.552152   87.401859
   1 C     6.0000    0    12.011  -38.476690   52.076729   86.821375
   2 C     6.0000    0    12.011  -38.416232   53.331924   89.461140
   3 C     6.0000    0    12.011  -38.002462   51.064493   91.266144
   4 O     8.0000    0    15.999  -38.688457   48.768297   89.828398
   5 H     1.0000    0     1.008  -39.368724   48.051559   86.045200
   6 H     1.0000    0     1.008  -36.554840   51.743985   86.126024
   7 H     1.0000    0     1.008  -39.491431   53.208499   85.417137
   8 H     1.0000    0     1.008  -36.930880   54.760551   89.636698
   9 H     1.0000    0     1.008  -40.230353   54.254212   89.852152
  10 H     1.0000    0     1.008  -39.179782   51.178141   92.964976
  11 H     1.0000    0     1.008  -36.025821   50.858548   91.835006
  12 C     6.0000    0    12.011  -43.954883   51.343966   85.434552
  13 H     1.0000    0     1.008  -42.603625   52.704561   84.648591
  14 H     1.0000    0     1.008  -44.516075   50.040156   83.922662
  15 O     8.0000    0    15.999  -42.681388   49.877410   87.636102
  16 C     6.0000    0    12.011  -46.351169   52.810280   86.284803
  17 C     6.0000    0    12.011  -45.688084   54.903986   88.174729
  18 C     6.0000    0    12.011  -44.678844   57.001721   86.404290
  19 C     6.0000    0    12.011  -46.339692   56.708941   84.011728
  20 O     8.0000    0    15.999  -47.475382   54.157784   84.139955
  21 H     1.0000    0     1.008  -47.762828   51.466615   86.961115
  22 O     8.0000    0    15.999  -48.108967   55.803356   89.571077
  23 H     1.0000    0     1.008  -44.303032   54.312433   89.592109
  24 H     1.0000    0     1.008  -44.820683   58.889499   87.235883
  25 H     1.0000    0     1.008  -42.685136   56.654078   85.956583
  26 H     1.0000    0     1.008  -45.247275   56.877263   82.261951
  27 H     1.0000    0     1.008  -47.896846   58.065739   83.960655
  28 H     1.0000    0     1.008  -49.528037   56.408135   88.185819

--------------------------------
INTERNAL COORDINATES (ANGSTROEM)
--------------------------------
 C      0   0   0     0.000000000000     0.00000000     0.00000000
 C      1   0   0     1.533334275362     0.00000000     0.00000000
 C      2   1   0     1.547103422529   101.67907390     0.00000000
 C      3   2   1     1.549188819996   103.12737509    35.02687180
 O      1   2   3     1.466801281701   104.24948604   319.98542309
 H      1   2   3     1.091872245274   114.43876658   203.42640133
 H      2   1   3     1.095759553917   110.06782188   117.34000099
 H      2   1   3     1.095088580892   113.12442239   238.72597460
 H      3   2   1     1.094523183857   112.83161078   156.54780790
 H      3   2   1     1.096628013503   110.07982737   276.98070077
 H      4   3   2     1.095413164062   112.52534669   222.25678475
 H      4   3   2     1.093891219455   112.45670684    98.86663270
 C      8   2   1     2.559940233677   103.83785452    19.06728176
 H     13   8   2     1.096668135764    31.12663584   182.32087880
 H     13   8   2     1.097410132995   119.31215603   258.67182768
 O      1   2   3     1.552547583812   111.30349807    79.08752829
 C     13   8   2     1.553222456701   124.16903599   115.25070840
 C     17  13   8     1.533253077610   111.29130648   333.76297823
 C     18  17  13     1.547651446547   101.67809595    79.11819813
 C     19  18  17     1.549006778552   103.13557609    34.99389214
 O     17  13   8     1.466498891919   110.48109476    89.08818205
 H     17  13   8     1.091647378964   109.16218939   206.52239498
 O     18  17  13     1.553595185368   110.05290063   196.43354117
 H     18  17  13     1.094421308272   113.17900108   317.75111249
 H     19  18  17     1.094178230454   112.81242724   156.50934550
 H     19  18  17     1.096836359718   110.02201390   276.94541376
 H     20  19  18     1.095208199385   112.54542179   222.30871141
 H     20  19  18     1.093265292598   112.46788874    98.89026809
 H     23  18  17     1.097128069097   109.63173112   304.16544722

---------------------------
INTERNAL COORDINATES (A.U.)
---------------------------
 C      0   0   0     0.000000000000     0.00000000     0.00000000
 C      1   0   0     2.897581852189     0.00000000     0.00000000
 C      2   1   0     2.923601769431   101.67907390     0.00000000
 C      3   2   1     2.927542599525   103.12737509    35.02687180
 O      1   2   3     2.771852715300   104.24948604   319.98542309
 H      1   2   3     2.063339516798   114.43876658   203.42640133
 H      2   1   3     2.070685465531   110.06782188   117.34000099
 H      2   1   3     2.069417510270   113.12442239   238.72597460
 H      3   2   1     2.068349064717   112.83161078   156.54780790
 H      3   2   1     2.072326616307   110.07982737   276.98070077
 H      4   3   2     2.070030883569   112.52534669   222.25678475
 H      4   3   2     2.067154825070   112.45670684    98.86663270
 C      8   2   1     4.837585960857   103.83785452    19.06728176
 H     13   8   2     2.072402436392    31.12663584   182.32087880
 H     13   8   2     2.073804607951   119.31215603   258.67182768
 O      1   2   3     2.933889743286   111.30349807    79.08752829
 C     13   8   2     2.935165068221   124.16903599   115.25070840
 C     17  13   8     2.897428410674   111.29130648   333.76297823
 C     18  17  13     2.924637384741   101.67809595    79.11819813
 C     19  18  17     2.927198591051   103.13557609    34.99389214
 O     17  13   8     2.771281281426   110.48109476    89.08818205
 H     17  13   8     2.062914581056   109.16218939   206.52239498
 O     18  17  13     2.935869423325   110.05290063   196.43354117
 H     18  17  13     2.068156547762   113.17900108   317.75111249
 H     19  18  17     2.067697197257   112.81242724   156.50934550
 H     19  18  17     2.072720333595   110.02201390   276.94541376
 H     20  19  18     2.069643556463   112.54542179   222.30871141
 H     20  19  18     2.065971994732   112.46788874    98.89026809
 H     23  18  17     2.073271584431   109.63173112   304.16544722

---------------------
BASIS SET INFORMATION
---------------------
There are 3 groups of distinct atoms

 Group   1 Type C   : 10s4p contracted to 3s2p pattern {631/31}
 Group   2 Type O   : 10s4p contracted to 3s2p pattern {631/31}
 Group   3 Type H   : 4s contracted to 2s pattern {31}

Atom   0C    basis set group =>   1
Atom   1C    basis set group =>   1
Atom   2C    basis set group =>   1
Atom   3C    basis set group =>   1
Atom   4O    basis set group =>   2
Atom   5H    basis set group =>   3
Atom   6H    basis set group =>   3
Atom   7H    basis set group =>   3
Atom   8H    basis set group =>   3
Atom   9H    basis set group =>   3
Atom  10H    basis set group =>   3
Atom  11H    basis set group =>   3
Atom  12C    basis set group =>   1
Atom  13H    basis set group =>   3
Atom  14H    basis set group =>   3
Atom  15O    basis set group =>   2
Atom  16C    basis set group =>   1
Atom  17C    basis set group =>   1
Atom  18C    basis set group =>   1
Atom  19C    basis set group =>   1
Atom  20O    basis set group =>   2
Atom  21H    basis set group =>   3
Atom  22O    basis set group =>   2
Atom  23H    basis set group =>   3
Atom  24H    basis set group =>   3
Atom  25H    basis set group =>   3
Atom  26H    basis set group =>   3
Atom  27H    basis set group =>   3
Atom  28H    basis set group =>   3
------------------------------------------------------------------------------
                           ORCA GTO INTEGRAL CALCULATION
------------------------------------------------------------------------------

                         BASIS SET STATISTICS AND STARTUP INFO

 # of primitive gaussian shells          ...  246
 # of primitive gaussian functions       ...  350
 # of contracted shells                  ...   97
 # of contracted basis functions         ...  149
 Highest angular momentum                ...    1
 Maximum contraction depth               ...    6
 Integral package used                   ... LIBINT
 Integral threshhold            Thresh   ...  2.500e-11
 Primitive cut-off              TCut     ...  2.500e-12


------------------------------ INTEGRAL EVALUATION ----------------------------


 * One electron integrals 
 Pre-screening matrix                    ... done
 Shell pair data                         ... done (   0.004 sec)

-------------------------------------------------------------------------------
                                 ORCA SCF
-------------------------------------------------------------------------------

------------
SCF SETTINGS
------------
Hamiltonian:
 Density Functional     Method          .... DFT(GTOs)
 Exchange Functional    Exchange        .... B88
   X-Alpha parameter    XAlpha          ....  0.666667
   Becke's b parameter  XBeta           ....  0.004200
 Correlation Functional Correlation     .... LYP
 LDA part of GGA corr.  LDAOpt          .... VWN-5
 Gradients option       PostSCFGGA      .... off
 Hybrid DFT is turned on
   Fraction HF Exchange ScalHFX         ....  0.200000
   Scaling of DF-GGA-X  ScalDFX         ....  0.720000
   Scaling of DF-GGA-C  ScalDFC         ....  0.810000
   Scaling of DF-LDA-C  ScalLDAC        ....  1.000000
   Perturbative correction              ....  0.000000
   Density functional embedding theory  .... OFF
   NL short-range parameter             ....  4.800000


General Settings:
 Integral files         IntName         .... project_8050/ensemble_165_210
 Hartree-Fock type      HFTyp           .... RHF
 Total Charge           Charge          ....    0
 Multiplicity           Mult            ....    1
 Number of Electrons    NEL             ....  102
 Basis Dimension        Dim             ....  149
 Nuclear Repulsion      ENuc            ....    875.7857939703 Eh

Convergence Acceleration:
 DIIS                   CNVDIIS         .... on
   Start iteration      DIISMaxIt       ....    12
   Startup error        DIISStart       ....  0.200000
   # of expansion vecs  DIISMaxEq       ....     5
   Bias factor          DIISBfac        ....   1.050
   Max. coefficient     DIISMaxC        ....  10.000
 Newton-Raphson         CNVNR           .... off
 SOSCF                  CNVSOSCF        .... on
   Start iteration      SOSCFMaxIt      ....   150
   Startup grad/error   SOSCFStart      ....  0.003300
 Level Shifting         CNVShift        .... on
   Level shift para.    LevelShift      ....    0.2500
   Turn off err/grad.   ShiftErr        ....    0.0010
 Zerner damping         CNVZerner       .... off
 Static damping         CNVDamp         .... on
   Fraction old density DampFac         ....    0.7000
   Max. Damping (<1)    DampMax         ....    0.9800
   Min. Damping (>=0)   DampMin         ....    0.0000
   Turn off err/grad.   DampErr         ....    0.1000
 Fernandez-Rico         CNVRico         .... off

SCF Procedure:
 Maximum # iterations   MaxIter         ....   125
 SCF integral mode      SCFMode         .... Direct
   Integral package                     .... LIBINT
 Reset frequency        DirectResetFreq ....    20
 Integral Threshold     Thresh          ....  2.500e-11 Eh
 Primitive CutOff       TCut            ....  2.500e-12 Eh

Convergence Tolerance:
 Convergence Check Mode ConvCheckMode   .... Total+1el-Energy
 Convergence forced     ConvForced      .... 0
 Energy Change          TolE            ....  1.000e-08 Eh
 1-El. energy change                    ....  1.000e-05 Eh
 Orbital Gradient       TolG            ....  1.000e-05
 Orbital Rotation angle TolX            ....  1.000e-05
 DIIS Error             TolErr          ....  5.000e-07


Diagonalization of the overlap matrix:
Smallest eigenvalue                        ... 4.189e-03
Time for diagonalization                   ...    0.006 sec
Threshold for overlap eigenvalues          ... 1.000e-08
Number of eigenvalues below threshold      ... 0
Time for construction of square roots      ...    0.046 sec
Total time needed                          ...    0.052 sec

-------------------
DFT GRID GENERATION
-------------------

General Integration Accuracy     IntAcc      ...  4.340
Radial Grid Type                 RadialGrid  ... Gauss-Chebyshev
Angular Grid (max. acc.)         AngularGrid ... Lebedev-110
Angular grid pruning method      GridPruning ... 3 (G Style)
Weight generation scheme         WeightScheme... Becke
Basis function cutoff            BFCut       ...    1.0000e-11
Integration weight cutoff        WCut        ...    1.0000e-14
Grids for H and He will be reduced by one unit

# of grid points (after initial pruning)     ...  34472 (   0.0 sec)
# of grid points (after weights+screening)   ...  30897 (   0.5 sec)
nearest neighbour list constructed           ...    0.0 sec
Grid point re-assignment to atoms done       ...    0.0 sec
Grid point division into batches done        ...    0.0 sec
Reduced shell lists constructed in    0.7 sec

Total number of grid points                  ...    30897
Total number of batches                      ...      497
Average number of points per batch           ...       62
Average number of grid points per atom       ...     1065
Average number of shells per batch           ...    61.09 (62.98%)
Average number of basis functions per batch  ...    98.78 (66.29%)
Average number of large shells per batch     ...    43.37 (70.98%)
Average number of large basis fcns per batch ...    71.50 (72.39%)
Maximum spatial batch extension              ...  19.24, 20.09, 20.88 au
Average spatial batch extension              ...   3.22,  3.37,  3.40 au

Time for grid setup =    1.273 sec

------------------------------
INITIAL GUESS: MODEL POTENTIAL
------------------------------
Loading Hartree-Fock densities                     ... done
Calculating cut-offs                               ... done
Setting up the integral package                    ... done
Initializing the effective Hamiltonian             ... done
Starting the Coulomb interaction                   ... done (   0.5 sec)
Reading the grid                                   ... done
Mapping shells                                     ... done
Starting the XC term evaluation                    ... done (   0.5 sec)
  promolecular density results
     # of electrons  =    101.991768088
     EX              =    -83.669637119
     EC              =     -3.461354796
     EX+EC           =    -87.130991915
Transforming the Hamiltonian                       ... done (   0.0 sec)
Diagonalizing the Hamiltonian                      ... done (   0.0 sec)
Back transforming the eigenvectors                 ... done (   0.0 sec)
Now organizing SCF variables                       ... done
                      ------------------
                      INITIAL GUESS DONE (   2.4 sec)
                      ------------------
--------------
SCF ITERATIONS
--------------
ITER       Energy         Delta-E        Max-DP      RMS-DP      [F,P]     Damp
               ***  Starting incremental Fock matrix formation  ***
  0   -652.5346201137   0.000000000000 0.07814913  0.00303311  0.2346486 0.7000
  1   -652.6725294394  -0.137909325703 0.04459508  0.00207250  0.0918341 0.7000
                               ***Turning on DIIS***
  2   -652.7242757287  -0.051746289289 0.05820288  0.00330526  0.0303618 0.0000
  3   -652.8097925727  -0.085516843979 0.03176621  0.00137692  0.0513150 0.0000
  4   -652.8268528359  -0.017060263229 0.00882412  0.00042305  0.0086309 0.0000
  5   -652.8278350992  -0.000982263312 0.00266196  0.00013012  0.0036663 0.0000
                      *** Initiating the SOSCF procedure ***
                           *** Shutting down DIIS ***
                      *** Re-Reading the Fockian *** 
                      *** Removing any level shift *** 
ITER      Energy       Delta-E        Grad      Rot      Max-DP    RMS-DP
  6   -652.82790335  -0.0000682480  0.000229  0.000229  0.000839  0.000052
               *** Restarting incremental Fock matrix formation ***
  7   -652.82790611  -0.0000027664  0.000084  0.000172  0.000899  0.000029
  8   -652.82790486   0.0000012519  0.000138  0.000132  0.000455  0.000018
  9   -652.82790718  -0.0000023149  0.000027  0.000034  0.000187  0.000006
 10   -652.82790711   0.0000000704  0.000033  0.000021  0.000124  0.000004
 11   -652.82790723  -0.0000001276  0.000003  0.000006  0.000020  0.000001
 12   -652.82790723   0.0000000001  0.000004  0.000004  0.000013  0.000000
                  ***Gradient check signals convergence***
              ***Rediagonalizing the Fockian in SOSCF/NRSCF***

               *****************************************************
               *                     SUCCESS                       *
               *           SCF CONVERGED AFTER  13 CYCLES          *
               *****************************************************

Setting up the final grid:

General Integration Accuracy     IntAcc      ...  4.670
Radial Grid Type                 RadialGrid  ... Gauss-Chebyshev
Angular Grid (max. acc.)         AngularGrid ... Lebedev-302
Angular grid pruning method      GridPruning ... 3 (G Style)
Weight generation scheme         WeightScheme... Becke
Basis function cutoff            BFCut       ...    1.0000e-11
Integration weight cutoff        WCut        ...    1.0000e-14
Grids for H and He will be reduced by one unit

# of grid points (after initial pruning)     ... 135060 (   0.1 sec)
# of grid points (after weights+screening)   ... 118489 (   1.6 sec)
nearest neighbour list constructed           ...    0.0 sec
Grid point re-assignment to atoms done       ...    0.0 sec
Grid point division into batches done        ...    0.5 sec
Reduced shell lists constructed in    1.8 sec

Total number of grid points                  ...   118489
Total number of batches                      ...     1865
Average number of points per batch           ...       63
Average number of grid points per atom       ...     4086
Average number of shells per batch           ...    55.96 (57.69%)
Average number of basis functions per batch  ...    90.69 (60.87%)
Average number of large shells per batch     ...    38.83 (69.38%)
Average number of large basis fcns per batch ...    64.20 (70.79%)
Maximum spatial batch extension              ...  19.70, 17.61, 19.30 au
Average spatial batch extension              ...   2.18,  2.22,  2.24 au

Final grid set up in    6.6 sec
Final integration                            ... done (   2.3 sec)
Change in XC energy                          ...     0.000252115
Integrated number of electrons               ...   101.999722231
Previous integrated no of electrons          ...   102.002591968

----------------
TOTAL SCF ENERGY
----------------

Total Energy       :         -652.82765512 Eh          -17764.34362 eV

Components:
Nuclear Repulsion  :          875.78579397 Eh           23831.34302 eV
Electronic Energy  :        -1528.61344909 Eh          -41595.68663 eV
One Electron Energy:        -2628.84887230 Eh          -71534.61456 eV
Two Electron Energy:         1100.23542321 Eh           29938.92793 eV

Virial components:
Potential Energy   :        -1301.76762183 Eh          -35422.89786 eV
Kinetic Energy     :          648.93996671 Eh           17658.55424 eV
Virial Ratio       :            2.00599083


DFT components:
N(Alpha)           :       50.999861115301 electrons
N(Beta)            :       50.999861115301 electrons
N(Total)           :      101.999722230602 electrons
E(X)               :      -67.591088261407 Eh       
E(C)               :       -4.071107588333 Eh       
E(XC)              :      -71.662195849740 Eh       
DFET-embed. en.    :        0.000000000000 Eh       

---------------
SCF CONVERGENCE
---------------

  Last Energy change         ...   -6.5836e-10  Tolerance :   1.0000e-08
  Last MAX-Density change    ...    3.1814e-06  Tolerance :   1.0000e-07
  Last RMS-Density change    ...    1.1358e-07  Tolerance :   5.0000e-09
  Last Orbital Gradient      ...    3.9954e-07  Tolerance :   1.0000e-05
  Last Orbital Rotation      ...    6.0927e-07  Tolerance :   1.0000e-05

             **** THE GBW FILE WAS UPDATED (project_8050/ensemble_165_210.gbw) ****
             **** DENSITY FILE WAS UPDATED (project_8050/ensemble_165_210.scfp) ****
             **** ENERGY FILE WAS UPDATED (project_8050/ensemble_165_210.en.tmp) ****
             **** THE GBW FILE WAS UPDATED (project_8050/ensemble_165_210.gbw) ****
             **** DENSITY FILE WAS UPDATED (project_8050/ensemble_165_210.scfp) ****
----------------
ORBITAL ENERGIES
----------------

  NO   OCC          E(Eh)            E(eV) 
   0   2.0000     -19.155305      -521.2424 
   1   2.0000     -19.153005      -521.1798 
   2   2.0000     -19.148024      -521.0442 
   3   2.0000     -19.144955      -520.9607 
   4   2.0000     -10.289679      -279.9964 
   5   2.0000     -10.246129      -278.8113 
   6   2.0000     -10.241385      -278.6823 
   7   2.0000     -10.239707      -278.6366 
   8   2.0000     -10.236929      -278.5610 
   9   2.0000     -10.231943      -278.4253 
  10   2.0000     -10.199661      -277.5469 
  11   2.0000     -10.199607      -277.5454 
  12   2.0000     -10.197461      -277.4870 
  13   2.0000      -1.039720       -28.2922 
  14   2.0000      -1.036901       -28.2155 
  15   2.0000      -0.968096       -26.3432 
  16   2.0000      -0.963890       -26.2288 
  17   2.0000      -0.796094       -21.6628 
  18   2.0000      -0.788562       -21.4579 
  19   2.0000      -0.769850       -20.9487 
  20   2.0000      -0.736231       -20.0339 
  21   2.0000      -0.678411       -18.4605 
  22   2.0000      -0.608760       -16.5652 
  23   2.0000      -0.605295       -16.4709 
  24   2.0000      -0.594966       -16.1899 
  25   2.0000      -0.578962       -15.7544 
  26   2.0000      -0.520181       -14.1548 
  27   2.0000      -0.510893       -13.9021 
  28   2.0000      -0.502039       -13.6612 
  29   2.0000      -0.495483       -13.4828 
  30   2.0000      -0.469171       -12.7668 
  31   2.0000      -0.452265       -12.3068 
  32   2.0000      -0.448914       -12.2156 
  33   2.0000      -0.434570       -11.8252 
  34   2.0000      -0.425655       -11.5827 
  35   2.0000      -0.418598       -11.3906 
  36   2.0000      -0.409783       -11.1508 
  37   2.0000      -0.393498       -10.7076 
  38   2.0000      -0.380752       -10.3608 
  39   2.0000      -0.373072       -10.1518 
  40   2.0000      -0.369288       -10.0488 
  41   2.0000      -0.361601        -9.8397 
  42   2.0000      -0.357349        -9.7240 
  43   2.0000      -0.329360        -8.9623 
  44   2.0000      -0.322877        -8.7859 
  45   2.0000      -0.312564        -8.5053 
  46   2.0000      -0.304737        -8.2923 
  47   2.0000      -0.275346        -7.4925 
  48   2.0000      -0.265728        -7.2308 
  49   2.0000      -0.259361        -7.0576 
  50   2.0000      -0.247645        -6.7388 
  51   0.0000       0.033354         0.9076 
  52   0.0000       0.049617         1.3502 
  53   0.0000       0.058944         1.6039 
  54   0.0000       0.086471         2.3530 
  55   0.0000       0.092964         2.5297 
  56   0.0000       0.097044         2.6407 
  57   0.0000       0.108470         2.9516 
  58   0.0000       0.120254         3.2723 
  59   0.0000       0.130696         3.5564 
  60   0.0000       0.133133         3.6227 
  61   0.0000       0.138995         3.7822 
  62   0.0000       0.141833         3.8595 
  63   0.0000       0.146593         3.9890 
  64   0.0000       0.149481         4.0676 
  65   0.0000       0.166487         4.5303 
  66   0.0000       0.171151         4.6572 
  67   0.0000       0.176823         4.8116 
  68   0.0000       0.184547         5.0218 
  69   0.0000       0.187091         5.0910 
  70   0.0000       0.196337         5.3426 
  71   0.0000       0.209344         5.6965 
  72   0.0000       0.228928         6.2294 
  73   0.0000       0.233852         6.3634 
  74   0.0000       0.242487         6.5984 
  75   0.0000       0.251848         6.8531 
  76   0.0000       0.263964         7.1828 
  77   0.0000       0.283220         7.7068 
  78   0.0000       0.286213         7.7882 
  79   0.0000       0.294953         8.0261 
  80   0.0000       0.316640         8.6162 
  81   0.0000       0.506339        13.7782 
  82   0.0000       0.526357        14.3229 
  83   0.0000       0.539965        14.6932 
  84   0.0000       0.542944        14.7743 
  85   0.0000       0.548363        14.9217 
  86   0.0000       0.562258        15.2998 
  87   0.0000       0.567347        15.4383 
  88   0.0000       0.578596        15.7444 
  89   0.0000       0.587873        15.9968 
  90   0.0000       0.596083        16.2202 
  91   0.0000       0.615785        16.7564 
  92   0.0000       0.622189        16.9306 
  93   0.0000       0.627306        17.0699 
  94   0.0000       0.636467        17.3191 
  95   0.0000       0.639188        17.3932 
  96   0.0000       0.654388        17.8068 
  97   0.0000       0.663532        18.0556 
  98   0.0000       0.687026        18.6949 
  99   0.0000       0.692865        18.8538 
 100   0.0000       0.731198        19.8969 
 101   0.0000       0.741987        20.1905 
 102   0.0000       0.773361        21.0442 
 103   0.0000       0.809969        22.0404 
 104   0.0000       0.813888        22.1470 
 105   0.0000       0.826102        22.4794 
 106   0.0000       0.839681        22.8489 
 107   0.0000       0.848263        23.0824 
 108   0.0000       0.865418        23.5492 
 109   0.0000       0.867258        23.5993 
 110   0.0000       0.872977        23.7549 
 111   0.0000       0.888001        24.1637 
 112   0.0000       0.902392        24.5553 
 113   0.0000       0.915957        24.9245 
 114   0.0000       0.917264        24.9600 
 115   0.0000       0.926082        25.2000 
 116   0.0000       0.932909        25.3857 
 117   0.0000       0.941397        25.6167 
 118   0.0000       0.949742        25.8438 
 119   0.0000       0.961781        26.1714 
 120   0.0000       0.977098        26.5882 
 121   0.0000       0.994063        27.0498 
 122   0.0000       1.011163        27.5151 
 123   0.0000       1.046382        28.4735 
 124   0.0000       1.068210        29.0675 
 125   0.0000       1.074644        29.2425 
 126   0.0000       1.091187        29.6927 
 127   0.0000       1.097053        29.8523 
 128   0.0000       1.144939        31.1554 
 129   0.0000       1.152987        31.3744 
 130   0.0000       1.193079        32.4653 
 131   0.0000       1.231490        33.5105 
 132   0.0000       1.252303        34.0769 
 133   0.0000       1.309004        35.6198 
 134   0.0000       1.317449        35.8496 
 135   0.0000       1.342514        36.5317 
 136   0.0000       1.376018        37.4434 
 137   0.0000       1.404444        38.2169 
 138   0.0000       1.416856        38.5546 
 139   0.0000       1.466952        39.9178 
 140   0.0000       1.487667        40.4815 
 141   0.0000       1.553191        42.2645 
 142   0.0000       1.656885        45.0861 
 143   0.0000       1.675470        45.5918 
 144   0.0000       1.693003        46.0690 
 145   0.0000       1.839066        50.0435 
 146   0.0000       1.916694        52.1559 
 147   0.0000       2.061377        56.0929 
 148   0.0000       2.080505        56.6134 

                    ********************************
                    * MULLIKEN POPULATION ANALYSIS *
                    ********************************

-----------------------
MULLIKEN ATOMIC CHARGES
-----------------------
   0 C :    0.309630
   1 C :   -0.294796
   2 C :   -0.304651
   3 C :   -0.001119
   4 O :   -0.497043
   5 H :    0.155950
   6 H :    0.155580
   7 H :    0.141072
   8 H :    0.146877
   9 H :    0.156742
  10 H :    0.157591
  11 H :    0.145722
  12 C :   -0.031432
  13 H :    0.116566
  14 H :    0.156403
  15 O :   -0.513328
  16 C :    0.067966
  17 C :    0.076750
  18 C :   -0.322077
  19 C :   -0.027122
  20 O :   -0.517992
  21 H :    0.182059
  22 O :   -0.596106
  23 H :    0.180145
  24 H :    0.166261
  25 H :    0.148471
  26 H :    0.145211
  27 H :    0.149347
  28 H :    0.347322
Sum of atomic charges:   -0.0000000

--------------------------------
MULLIKEN REDUCED ORBITAL CHARGES
--------------------------------
  0 C s       :     3.225616  s :     3.225616
      pz      :     0.795796  p :     2.464755
      px      :     0.690261
      py      :     0.978697
  1 C s       :     3.312097  s :     3.312097
      pz      :     0.978965  p :     2.982698
      px      :     1.053919
      py      :     0.949814
  2 C s       :     3.321173  s :     3.321173
      pz      :     0.905666  p :     2.983478
      px      :     1.083473
      py      :     0.994338
  3 C s       :     3.261957  s :     3.261957
      pz      :     0.941978  p :     2.739162
      px      :     1.059225
      py      :     0.737959
  4 O s       :     3.948049  s :     3.948049
      pz      :     1.317689  p :     4.548994
      px      :     1.715305
      py      :     1.515999
  5 H s       :     0.844050  s :     0.844050
  6 H s       :     0.844420  s :     0.844420
  7 H s       :     0.858928  s :     0.858928
  8 H s       :     0.853123  s :     0.853123
  9 H s       :     0.843258  s :     0.843258
 10 H s       :     0.842409  s :     0.842409
 11 H s       :     0.854278  s :     0.854278
 12 C s       :     3.287489  s :     3.287489
      pz      :     0.860875  p :     2.743943
      px      :     0.932250
      py      :     0.950818
 13 H s       :     0.883434  s :     0.883434
 14 H s       :     0.843597  s :     0.843597
 15 O s       :     3.953202  s :     3.953202
      pz      :     1.534843  p :     4.560126
      px      :     1.284628
      py      :     1.740656
 16 C s       :     3.276061  s :     3.276061
      pz      :     0.766952  p :     2.655973
      px      :     0.972984
      py      :     0.916037
 17 C s       :     3.301023  s :     3.301023
      pz      :     0.910472  p :     2.622227
      px      :     0.815840
      py      :     0.895915
 18 C s       :     3.324054  s :     3.324054
      pz      :     0.941556  p :     2.998023
      px      :     1.005748
      py      :     1.050719
 19 C s       :     3.266903  s :     3.266903
      pz      :     1.019364  p :     2.760219
      px      :     0.994807
      py      :     0.746048
 20 O s       :     3.946675  s :     3.946675
      pz      :     1.575355  p :     4.571317
      px      :     1.702488
      py      :     1.293473
 21 H s       :     0.817941  s :     0.817941
 22 O s       :     3.953168  s :     3.953168
      pz      :     1.519871  p :     4.642938
      px      :     1.285315
      py      :     1.837752
 23 H s       :     0.819855  s :     0.819855
 24 H s       :     0.833739  s :     0.833739
 25 H s       :     0.851529  s :     0.851529
 26 H s       :     0.854789  s :     0.854789
 27 H s       :     0.850653  s :     0.850653
 28 H s       :     0.652678  s :     0.652678


                     *******************************
                     * LOEWDIN POPULATION ANALYSIS *
                     *******************************

----------------------
LOEWDIN ATOMIC CHARGES
----------------------
   0 C :    0.192959
   1 C :   -0.231992
   2 C :   -0.217631
   3 C :   -0.027130
   4 O :   -0.297382
   5 H :    0.106838
   6 H :    0.119967
   7 H :    0.111718
   8 H :    0.116217
   9 H :    0.111224
  10 H :    0.111092
  11 H :    0.104410
  12 C :   -0.050622
  13 H :    0.092106
  14 H :    0.111601
  15 O :   -0.366556
  16 C :    0.027109
  17 C :    0.043105
  18 C :   -0.241873
  19 C :   -0.039411
  20 O :   -0.321879
  21 H :    0.128033
  22 O :   -0.440963
  23 H :    0.127583
  24 H :    0.128581
  25 H :    0.111323
  26 H :    0.103419
  27 H :    0.103784
  28 H :    0.284373

-------------------------------
LOEWDIN REDUCED ORBITAL CHARGES
-------------------------------
  0 C s       :     2.977983  s :     2.977983
      pz      :     0.917279  p :     2.829059
      px      :     0.833004
      py      :     1.078775
  1 C s       :     2.977798  s :     2.977798
      pz      :     1.075987  p :     3.254193
      px      :     1.111221
      py      :     1.066986
  2 C s       :     2.972831  s :     2.972831
      pz      :     1.032472  p :     3.244800
      px      :     1.129746
      py      :     1.082582
  3 C s       :     2.983651  s :     2.983651
      pz      :     1.039829  p :     3.043478
      px      :     1.121088
      py      :     0.882562
  4 O s       :     3.608088  s :     3.608088
      pz      :     1.378654  p :     4.689294
      px      :     1.747595
      py      :     1.563045
  5 H s       :     0.893162  s :     0.893162
  6 H s       :     0.880033  s :     0.880033
  7 H s       :     0.888282  s :     0.888282
  8 H s       :     0.883783  s :     0.883783
  9 H s       :     0.888776  s :     0.888776
 10 H s       :     0.888908  s :     0.888908
 11 H s       :     0.895590  s :     0.895590
 12 C s       :     3.006352  s :     3.006352
      pz      :     0.957742  p :     3.044270
      px      :     1.043786
      py      :     1.042743
 13 H s       :     0.907894  s :     0.907894
 14 H s       :     0.888399  s :     0.888399
 15 O s       :     3.663526  s :     3.663526
      pz      :     1.586277  p :     4.703030
      px      :     1.343691
      py      :     1.773063
 16 C s       :     2.967279  s :     2.967279
      pz      :     0.915247  p :     3.005611
      px      :     1.058547
      py      :     1.031818
 17 C s       :     2.975559  s :     2.975559
      pz      :     1.035703  p :     2.981337
      px      :     0.919893
      py      :     1.025741
 18 C s       :     2.982095  s :     2.982095
      pz      :     1.056021  p :     3.259778
      px      :     1.097171
      py      :     1.106587
 19 C s       :     2.983556  s :     2.983556
      pz      :     1.101619  p :     3.055855
      px      :     1.077542
      py      :     0.876694
 20 O s       :     3.603410  s :     3.603410
      pz      :     1.620228  p :     4.718468
      px      :     1.739873
      py      :     1.358368
 21 H s       :     0.871967  s :     0.871967
 22 O s       :     3.694774  s :     3.694774
      pz      :     1.556816  p :     4.746189
      px      :     1.339401
      py      :     1.849972
 23 H s       :     0.872417  s :     0.872417
 24 H s       :     0.871419  s :     0.871419
 25 H s       :     0.888677  s :     0.888677
 26 H s       :     0.896581  s :     0.896581
 27 H s       :     0.896216  s :     0.896216
 28 H s       :     0.715627  s :     0.715627


                      *****************************
                      * MAYER POPULATION ANALYSIS *
                      *****************************

  NA   - Mulliken gross atomic population
  ZA   - Total nuclear charge
  QA   - Mulliken gross atomic charge
  VA   - Mayer's total valence
  BVA  - Mayer's bonded valence
  FA   - Mayer's free valence

  ATOM       NA         ZA         QA         VA         BVA        FA
  0 C      5.6904     6.0000     0.3096     3.6476     3.6476    -0.0000
  1 C      6.2948     6.0000    -0.2948     3.7188     3.7188    -0.0000
  2 C      6.3047     6.0000    -0.3047     3.7572     3.7572    -0.0000
  3 C      6.0011     6.0000    -0.0011     3.6531     3.6531    -0.0000
  4 O      8.4970     8.0000    -0.4970     1.8298     1.8298     0.0000
  5 H      0.8440     1.0000     0.1560     0.9255     0.9255     0.0000
  6 H      0.8444     1.0000     0.1556     0.9318     0.9318     0.0000
  7 H      0.8589     1.0000     0.1411     0.9406     0.9406    -0.0000
  8 H      0.8531     1.0000     0.1469     0.9361     0.9361    -0.0000
  9 H      0.8433     1.0000     0.1567     0.9357     0.9357    -0.0000
 10 H      0.8424     1.0000     0.1576     0.9248     0.9248     0.0000
 11 H      0.8543     1.0000     0.1457     0.9281     0.9281    -0.0000
 12 C      6.0314     6.0000    -0.0314     3.6337     3.6337    -0.0000
 13 H      0.8834     1.0000     0.1166     0.9339     0.9339    -0.0000
 14 H      0.8436     1.0000     0.1564     0.9249     0.9249     0.0000
 15 O      8.5133     8.0000    -0.5133     1.7735     1.7735     0.0000
 16 C      5.9320     6.0000     0.0680     3.5827     3.5827     0.0000
 17 C      5.9232     6.0000     0.0768     3.6222     3.6222    -0.0000
 18 C      6.3221     6.0000    -0.3221     3.7018     3.7018     0.0000
 19 C      6.0271     6.0000    -0.0271     3.6620     3.6620    -0.0000
 20 O      8.5180     8.0000    -0.5180     1.7722     1.7722    -0.0000
 21 H      0.8179     1.0000     0.1821     0.9299     0.9299     0.0000
 22 O      8.5961     8.0000    -0.5961     1.7595     1.7595    -0.0000
 23 H      0.8199     1.0000     0.1801     0.9423     0.9423    -0.0000
 24 H      0.8337     1.0000     0.1663     0.9390     0.9390    -0.0000
 25 H      0.8515     1.0000     0.1485     0.9328     0.9328    -0.0000
 26 H      0.8548     1.0000     0.1452     0.9279     0.9279    -0.0000
 27 H      0.8507     1.0000     0.1493     0.9292     0.9292    -0.0000
 28 H      0.6527     1.0000     0.3473     0.8495     0.8495    -0.0000

  Mayer bond orders larger than 0.100000
B(  0-C ,  1-C ) :   0.9270 B(  0-C ,  4-O ) :   0.9369 B(  0-C ,  5-H ) :   0.9225 
B(  0-C , 15-O ) :   0.8249 B(  1-C ,  2-C ) :   0.9528 B(  1-C ,  6-H ) :   0.9316 
B(  1-C ,  7-H ) :   0.9184 B(  2-C ,  3-C ) :   0.9539 B(  2-C ,  8-H ) :   0.9439 
B(  2-C ,  9-H ) :   0.9335 B(  3-C ,  4-O ) :   0.8360 B(  3-C , 10-H ) :   0.9326 
B(  3-C , 11-H ) :   0.9379 B( 12-C , 13-H ) :   0.9014 B( 12-C , 14-H ) :   0.9199 
B( 12-C , 15-O ) :   0.8558 B( 12-C , 16-C ) :   0.8895 B( 16-C , 17-C ) :   0.9065 
B( 16-C , 20-O ) :   0.8465 B( 16-C , 21-H ) :   0.9251 B( 17-C , 18-C ) :   0.9162 
B( 17-C , 22-O ) :   0.8837 B( 17-C , 23-H ) :   0.9108 B( 18-C , 19-C ) :   0.9380 
B( 18-C , 24-H ) :   0.9373 B( 18-C , 25-H ) :   0.9273 B( 19-C , 20-O ) :   0.8458 
B( 19-C , 26-H ) :   0.9354 B( 19-C , 27-H ) :   0.9368 B( 22-O , 28-H ) :   0.8104 


-------
TIMINGS
-------

Total SCF time: 0 days 0 hours 3 min 31 sec 

Total time                  ....     211.032 sec
Sum of individual times     ....     210.023 sec  ( 99.5%)

Fock matrix formation       ....     200.556 sec  ( 95.0%)
  XC integration            ....      26.535 sec  ( 13.2% of F)
    Basis function eval.    ....       4.388 sec  ( 16.5% of XC)
    Density eval.           ....       2.401 sec  (  9.0% of XC)
    XC-Functional eval.     ....       1.040 sec  (  3.9% of XC)
    XC-Potential eval.      ....       2.591 sec  (  9.8% of XC)
Diagonalization             ....       0.138 sec  (  0.1%)
Density matrix formation    ....       0.008 sec  (  0.0%)
Population analysis         ....       0.030 sec  (  0.0%)
Initial guess               ....       1.085 sec  (  0.5%)
Orbital Transformation      ....       0.000 sec  (  0.0%)
Orbital Orthonormalization  ....       0.000 sec  (  0.0%)
DIIS solution               ....       0.208 sec  (  0.1%)
SOSCF solution              ....       0.084 sec  (  0.0%)
Grid generation             ....       7.915 sec  (  3.8%)

-------------------------   --------------------
FINAL SINGLE POINT ENERGY      -652.827655119192
-------------------------   --------------------

------------------------------------------------------------------------------
                         ORCA SCF GRADIENT CALCULATION
------------------------------------------------------------------------------

Gradient of the Kohn-Sham DFT energy:
Kohn-Sham wavefunction type      ... RKS
Hartree-Fock exchange scaling    ...    0.200
Number of operators              ...    1
Number of atoms                  ...   29
Basis set dimensions             ...  149
Integral neglect threshold       ... 2.5e-11
Integral primitive cutoff        ... 2.5e-12

Nuclear repulsion gradient       ... done
One Electron Gradient            ... done
Pre-screening matrix             ... done
Starting the two electron gradient:
Two electron gradient done
Exchange-correlation gradient    ... done

------------------
CARTESIAN GRADIENT
------------------

   1   C   :    0.009646111   -0.002139879   -0.003902007
   2   C   :    0.002458333   -0.002133624   -0.005541764
   3   C   :   -0.001317772    0.000105401   -0.001719192
   4   C   :    0.001458846   -0.005550373   -0.004180226
   5   O   :    0.018983496   -0.007399054    0.021540387
   6   H   :    0.004622818    0.002190234   -0.002268898
   7   H   :    0.000600426    0.001746878    0.000376275
   8   H   :   -0.006836111    0.000879780   -0.001934342
   9   H   :   -0.000424302    0.000595090    0.000169078
  10   H   :   -0.001945450    0.001044465    0.000053558
  11   H   :   -0.000507708    0.000972173    0.001659807
  12   H   :   -0.000226494    0.001122462    0.000941681
  13   C   :   -0.008546098    0.010892559   -0.007047313
  14   H   :    0.003731835    0.004584658    0.000331867
  15   H   :   -0.003456955    0.003316002   -0.003761014
  16   O   :   -0.008813597   -0.017940386    0.019510394
  17   C   :   -0.010883706    0.012231704   -0.015448775
  18   C   :    0.030862629   -0.014450377   -0.001887771
  19   C   :    0.004357540   -0.000607054    0.000475206
  20   C   :   -0.003230996   -0.002629344    0.001600371
  21   O   :   -0.004931414    0.002934909    0.001114244
  22   H   :    0.000708315   -0.003599853   -0.003101145
  23   O   :    0.011673312   -0.008900908    0.050761297
  24   H   :    0.011428347   -0.001246501   -0.004025520
  25   H   :    0.000637839    0.002086043   -0.002083260
  26   H   :    0.000394380   -0.001159380   -0.001024380
  27   H   :    0.000935338   -0.000450013   -0.000151725
  28   H   :    0.000499393   -0.000571278    0.000743564
  29   H   :   -0.051878355    0.024075665   -0.041200397

Difference to translation invariance:
           :   -0.0000000000   -0.0000000000    0.0000000000

Norm of the cartesian gradient     ...    0.1094123434
RMS gradient                       ...    0.0117302345
MAX gradient                       ...    0.0518783551

-------
TIMINGS
-------

Total SCF gradient time            ...       45.154 sec

One electron gradient       ....       0.383 sec  (  0.8%)
Prescreening matrices       ....       0.064 sec  (  0.1%)
Two electron gradient       ....      25.795 sec  ( 57.1%)
XC gradient                 ....      18.776 sec  ( 41.6%)
------------------------------------------------------------------------------
                         ORCA GEOMETRY RELAXATION STEP
------------------------------------------------------------------------------

Reading the OPT-File                    .... done
Getting information on internals        .... done
Copying old internal coords+grads       .... done
Making the new internal coordinates     .... (new redundants).... done
Validating the new internal coordinates .... (new redundants).... done
Calculating the B-matrix                .... done
Calculating the G,G- and P matrices     .... done
Transforming gradient to internals      .... done
Projecting the internal gradient        .... done
Number of atoms                         ....  29
Number of internal coordinates          .... 172
Current Energy                          ....  -652.827655119 Eh
Current gradient norm                   ....     0.109412343 Eh/bohr
Maximum allowed component of the step   ....  0.300
Current trust radius                    ....  0.300
Evaluating the initial hessian          ....  (Almloef) done
Projecting the Hessian                  .... done
Forming the augmented Hessian           .... done
Diagonalizing the augmented Hessian     .... done
Last element of RFO vector              ....  0.940574784
Lowest eigenvalues of augmented Hessian:
 -0.038779213  0.007849147  0.032991623  0.033133142  0.036660852
Length of the computed step             ....  0.361041601
Warning: the length of the step is outside the trust region - taking restricted step instead
The input lambda is                     ....    -0.038779
   iter:   1  x=   -0.074498  g=    1.129700 f(x)=     0.040351
   iter:   2  x=   -0.090143  g=    0.649629 f(x)=     0.010164
   iter:   3  x=   -0.091727  g=    0.544717 f(x)=     0.000863
   iter:   4  x=   -0.091740  g=    0.535726 f(x)=     0.000007
   iter:   5  x=   -0.091740  g=    0.535651 f(x)=     0.000000
   iter:   6  x=   -0.091740  g=    0.535651 f(x)=     0.000000
The output lambda is                    ....    -0.091740 (6 iterations)
The final length of the internal step   ....  0.300000000
Converting the step to cartesian space:
 Initial RMS(Int)=    0.0228747855
Transforming coordinates:
 Iter   0:  RMS(Cart)=    0.1291099993 RMS(Int)=    0.4780319575
 Iter   1:  RMS(Cart)=    0.0075029535 RMS(Int)=    0.0036589659
 Iter   2:  RMS(Cart)=    0.0007535290 RMS(Int)=    0.0001528936
 Iter   3:  RMS(Cart)=    0.0000819557 RMS(Int)=    0.0000455791
 Iter   4:  RMS(Cart)=    0.0000090358 RMS(Int)=    0.0000021762
 Iter   5:  RMS(Cart)=    0.0000010310 RMS(Int)=    0.0000005747
[...]
  29   2.0000      -0.496785       -13.5182 
  30   2.0000      -0.478880       -13.0310 
  31   2.0000      -0.457953       -12.4615 
  32   2.0000      -0.454486       -12.3672 
  33   2.0000      -0.443495       -12.0681 
  34   2.0000      -0.429002       -11.6737 
  35   2.0000      -0.418436       -11.3862 
  36   2.0000      -0.408863       -11.1257 
  37   2.0000      -0.396458       -10.7882 
  38   2.0000      -0.382535       -10.4093 
  39   2.0000      -0.372021       -10.1232 
  40   2.0000      -0.367471        -9.9994 
  41   2.0000      -0.361227        -9.8295 
  42   2.0000      -0.357008        -9.7147 
  43   2.0000      -0.334600        -9.1049 
  44   2.0000      -0.317928        -8.6513 
  45   2.0000      -0.308904        -8.4057 
  46   2.0000      -0.302829        -8.2404 
  47   2.0000      -0.274995        -7.4830 
  48   2.0000      -0.264633        -7.2010 
  49   2.0000      -0.257954        -7.0193 
  50   2.0000      -0.246462        -6.7066 
  51   0.0000       0.053711         1.4616 
  52   0.0000       0.064756         1.7621 
  53   0.0000       0.088872         2.4183 
  54   0.0000       0.092420         2.5149 
  55   0.0000       0.100768         2.7420 
  56   0.0000       0.105213         2.8630 
  57   0.0000       0.112553         3.0627 
  58   0.0000       0.128816         3.5053 
  59   0.0000       0.134366         3.6563 
  60   0.0000       0.139052         3.7838 
  61   0.0000       0.142915         3.8889 
  62   0.0000       0.146237         3.9793 
  63   0.0000       0.150705         4.1009 
  64   0.0000       0.164850         4.4858 
  65   0.0000       0.178850         4.8667 
  66   0.0000       0.179590         4.8869 
  67   0.0000       0.184902         5.0314 
  68   0.0000       0.192830         5.2472 
  69   0.0000       0.201457         5.4819 
  70   0.0000       0.207777         5.6539 
  71   0.0000       0.220886         6.0106 
  72   0.0000       0.230804         6.2805 
  73   0.0000       0.240149         6.5348 
  74   0.0000       0.250371         6.8129 
  75   0.0000       0.259465         7.0604 
  76   0.0000       0.269595         7.3361 
  77   0.0000       0.276502         7.5240 
  78   0.0000       0.293075         7.9750 
  79   0.0000       0.305481         8.3125 
  80   0.0000       0.322735         8.7821 
  81   0.0000       0.505384        13.7522 
  82   0.0000       0.535663        14.5761 
  83   0.0000       0.545365        14.8401 
  84   0.0000       0.547395        14.8954 
  85   0.0000       0.554761        15.0958 
  86   0.0000       0.565440        15.3864 
  87   0.0000       0.575882        15.6706 
  88   0.0000       0.582202        15.8425 
  89   0.0000       0.591813        16.1040 
  90   0.0000       0.601124        16.3574 
  91   0.0000       0.616231        16.7685 
  92   0.0000       0.619290        16.8517 
  93   0.0000       0.622079        16.9276 
  94   0.0000       0.641864        17.4660 
  95   0.0000       0.644693        17.5430 
  96   0.0000       0.662314        18.0225 
  97   0.0000       0.678002        18.4494 
  98   0.0000       0.691736        18.8231 
  99   0.0000       0.700146        19.0519 
 100   0.0000       0.733681        19.9645 
 101   0.0000       0.745138        20.2762 
 102   0.0000       0.784464        21.3464 
 103   0.0000       0.815946        22.2030 
 104   0.0000       0.826928        22.5019 
 105   0.0000       0.836773        22.7697 
 106   0.0000       0.847055        23.0495 
 107   0.0000       0.857421        23.3316 
 108   0.0000       0.862123        23.4596 
 109   0.0000       0.870776        23.6950 
 110   0.0000       0.877237        23.8708 
 111   0.0000       0.893584        24.3157 
 112   0.0000       0.907389        24.6913 
 113   0.0000       0.910427        24.7740 
 114   0.0000       0.914365        24.8811 
 115   0.0000       0.928003        25.2522 
 116   0.0000       0.930871        25.3303 
 117   0.0000       0.946803        25.7638 
 118   0.0000       0.954839        25.9825 
 119   0.0000       0.960759        26.1436 
 120   0.0000       0.977380        26.5959 
 121   0.0000       0.988416        26.8962 
 122   0.0000       1.010419        27.4949 
 123   0.0000       1.041972        28.3535 
 124   0.0000       1.059099        28.8195 
 125   0.0000       1.087582        29.5946 
 126   0.0000       1.093325        29.7509 
 127   0.0000       1.110523        30.2189 
 128   0.0000       1.126720        30.6596 
 129   0.0000       1.136763        30.9329 
 130   0.0000       1.224710        33.3261 
 131   0.0000       1.230506        33.4838 
 132   0.0000       1.253319        34.1046 
 133   0.0000       1.302649        35.4469 
 134   0.0000       1.319526        35.9061 
 135   0.0000       1.332448        36.2578 
 136   0.0000       1.384800        37.6823 
 137   0.0000       1.415790        38.5256 
 138   0.0000       1.422114        38.6977 
 139   0.0000       1.483631        40.3716 
 140   0.0000       1.509599        41.0783 
 141   0.0000       1.604919        43.6721 
 142   0.0000       1.652069        44.9551 
 143   0.0000       1.677316        45.6421 
 144   0.0000       1.711710        46.5780 
 145   0.0000       1.876321        51.0573 
 146   0.0000       1.956809        53.2475 
 147   0.0000       2.067407        56.2570 
 148   0.0000       2.093048        56.9547 

                    ********************************
                    * MULLIKEN POPULATION ANALYSIS *
                    ********************************

-----------------------
MULLIKEN ATOMIC CHARGES
-----------------------
   0 C :    0.322456
   1 C :   -0.296790
   2 C :   -0.305248
   3 C :   -0.002864
   4 O :   -0.496752
   5 H :    0.147289
   6 H :    0.155948
   7 H :    0.141129
   8 H :    0.145872
   9 H :    0.155343
  10 H :    0.157329
  11 H :    0.145862
  12 C :   -0.006840
  13 H :    0.117140
  14 H :    0.152379
  15 O :   -0.524862
  16 C :    0.057582
  17 C :    0.090653
  18 C :   -0.309270
  19 C :   -0.026943
  20 O :   -0.526389
  21 H :    0.173799
  22 O :   -0.604061
  23 H :    0.173124
  24 H :    0.163380
  25 H :    0.143763
  26 H :    0.142864
  27 H :    0.150230
  28 H :    0.363879
Sum of atomic charges:   -0.0000000

--------------------------------
MULLIKEN REDUCED ORBITAL CHARGES
--------------------------------
  0 C s       :     3.190671  s :     3.190671
      pz      :     0.783378  p :     2.486873
      px      :     0.700201
      py      :     1.003294
  1 C s       :     3.314091  s :     3.314091
      pz      :     0.989970  p :     2.982699
      px      :     1.030874
      py      :     0.961855
  2 C s       :     3.320298  s :     3.320298
      pz      :     0.907526  p :     2.984949
      px      :     1.084490
      py      :     0.992933
  3 C s       :     3.263844  s :     3.263844
      pz      :     0.938251  p :     2.739021
      px      :     1.053939
      py      :     0.746831
  4 O s       :     3.936618  s :     3.936618
      pz      :     1.268819  p :     4.560134
      px      :     1.769001
      py      :     1.522314
  5 H s       :     0.852711  s :     0.852711
  6 H s       :     0.844052  s :     0.844052
  7 H s       :     0.858871  s :     0.858871
  8 H s       :     0.854128  s :     0.854128
  9 H s       :     0.844657  s :     0.844657
 10 H s       :     0.842671  s :     0.842671
 11 H s       :     0.854138  s :     0.854138
 12 C s       :     3.255277  s :     3.255277
      pz      :     0.850937  p :     2.751563
      px      :     0.932260
      py      :     0.968366
 13 H s       :     0.882860  s :     0.882860
 14 H s       :     0.847621  s :     0.847621
 15 O s       :     3.925379  s :     3.925379
      pz      :     1.538719  p :     4.599483
      px      :     1.311973
      py      :     1.748791
 16 C s       :     3.271748  s :     3.271748
      pz      :     0.787200  p :     2.670669
      px      :     0.969210
      py      :     0.914259
 17 C s       :     3.261667  s :     3.261667
      pz      :     0.925896  p :     2.647680
      px      :     0.816693
      py      :     0.905091
 18 C s       :     3.318932  s :     3.318932
      pz      :     0.945263  p :     2.990338
      px      :     1.006801
      py      :     1.038274
 19 C s       :     3.268657  s :     3.268657
      pz      :     1.021261  p :     2.758287
      px      :     1.010192
      py      :     0.726834
 20 O s       :     3.947172  s :     3.947172
      pz      :     1.581255  p :     4.579217
      px      :     1.716535
      py      :     1.281427
 21 H s       :     0.826201  s :     0.826201
 22 O s       :     3.921696  s :     3.921696
      pz      :     1.576451  p :     4.682366
      px      :     1.211908
      py      :     1.894007
 23 H s       :     0.826876  s :     0.826876
 24 H s       :     0.836620  s :     0.836620
 25 H s       :     0.856237  s :     0.856237
 26 H s       :     0.857136  s :     0.857136
 27 H s       :     0.849770  s :     0.849770
 28 H s       :     0.636121  s :     0.636121


                     *******************************
                     * LOEWDIN POPULATION ANALYSIS *
                     *******************************

----------------------
LOEWDIN ATOMIC CHARGES
----------------------
   0 C :    0.186424
   1 C :   -0.233736
   2 C :   -0.218490
   3 C :   -0.026079
   4 O :   -0.300218
   5 H :    0.098774
   6 H :    0.121437
   7 H :    0.111500
   8 H :    0.116322
   9 H :    0.110766
  10 H :    0.110678
  11 H :    0.104776
  12 C :   -0.040264
  13 H :    0.088428
  14 H :    0.107037
  15 O :   -0.338616
  16 C :    0.017747
  17 C :    0.037965
  18 C :   -0.244364
  19 C :   -0.037815
  20 O :   -0.329609
  21 H :    0.121582
  22 O :   -0.413198
  23 H :    0.122019
  24 H :    0.127174
  25 H :    0.110309
  26 H :    0.102468
  27 H :    0.104561
  28 H :    0.282421

-------------------------------
LOEWDIN REDUCED ORBITAL CHARGES
-------------------------------
  0 C s       :     2.951518  s :     2.951518
      pz      :     0.915448  p :     2.862058
      px      :     0.861865
      py      :     1.084745
  1 C s       :     2.979220  s :     2.979220
      pz      :     1.077865  p :     3.254516
      px      :     1.105294
      py      :     1.071357
  2 C s       :     2.971770  s :     2.971770
      pz      :     1.032874  p :     3.246720
      px      :     1.130117
      py      :     1.083729
  3 C s       :     2.983445  s :     2.983445
      pz      :     1.040954  p :     3.042634
      px      :     1.114244
      py      :     0.887436
  4 O s       :     3.593320  s :     3.593320
      pz      :     1.340819  p :     4.706897
      px      :     1.796964
      py      :     1.569114
  5 H s       :     0.901226  s :     0.901226
  6 H s       :     0.878563  s :     0.878563
  7 H s       :     0.888500  s :     0.888500
  8 H s       :     0.883678  s :     0.883678
  9 H s       :     0.889234  s :     0.889234
 10 H s       :     0.889322  s :     0.889322
 11 H s       :     0.895224  s :     0.895224
 12 C s       :     2.979812  s :     2.979812
      pz      :     0.968387  p :     3.060452
      px      :     1.037929
      py      :     1.054136
 13 H s       :     0.911572  s :     0.911572
 14 H s       :     0.892963  s :     0.892963
 15 O s       :     3.587611  s :     3.587611
      pz      :     1.593358  p :     4.751005
      px      :     1.373536
      py      :     1.784111
 16 C s       :     2.967917  s :     2.967917
      pz      :     0.930377  p :     3.014336
      px      :     1.050719
      py      :     1.033240
 17 C s       :     2.952248  s :     2.952248
      pz      :     1.037697  p :     3.009788
      px      :     0.939580
      py      :     1.032511
 18 C s       :     2.983895  s :     2.983895
      pz      :     1.058775  p :     3.260469
      px      :     1.098423
      py      :     1.103271
 19 C s       :     2.984496  s :     2.984496
      pz      :     1.102235  p :     3.053319
      px      :     1.090475
      py      :     0.860608
 20 O s       :     3.603956  s :     3.603956
      pz      :     1.626947  p :     4.725653
      px      :     1.752103
      py      :     1.346603
 21 H s       :     0.878418  s :     0.878418
 22 O s       :     3.613447  s :     3.613447
      pz      :     1.620998  p :     4.799751
      px      :     1.276093
      py      :     1.902660
 23 H s       :     0.877981  s :     0.877981
 24 H s       :     0.872826  s :     0.872826
 25 H s       :     0.889691  s :     0.889691
 26 H s       :     0.897532  s :     0.897532
 27 H s       :     0.895439  s :     0.895439
 28 H s       :     0.717579  s :     0.717579


                      *****************************
                      * MAYER POPULATION ANALYSIS *
                      *****************************

  NA   - Mulliken gross atomic population
  ZA   - Total nuclear charge
  QA   - Mulliken gross atomic charge
  VA   - Mayer's total valence
  BVA  - Mayer's bonded valence
  FA   - Mayer's free valence

  ATOM       NA         ZA         QA         VA         BVA        FA
  0 C      5.6775     6.0000     0.3225     3.6639     3.6639    -0.0000
  1 C      6.2968     6.0000    -0.2968     3.7164     3.7164    -0.0000
  2 C      6.3052     6.0000    -0.3052     3.7581     3.7581    -0.0000
  3 C      6.0029     6.0000    -0.0029     3.6572     3.6572     0.0000
  4 O      8.4968     8.0000    -0.4968     1.8063     1.8063     0.0000
  5 H      0.8527     1.0000     0.1473     0.9271     0.9271    -0.0000
  6 H      0.8441     1.0000     0.1559     0.9319     0.9319    -0.0000
  7 H      0.8589     1.0000     0.1411     0.9422     0.9422    -0.0000
  8 H      0.8541     1.0000     0.1459     0.9366     0.9366     0.0000
  9 H      0.8447     1.0000     0.1553     0.9358     0.9358     0.0000
 10 H      0.8427     1.0000     0.1573     0.9252     0.9252     0.0000
 11 H      0.8541     1.0000     0.1459     0.9285     0.9285    -0.0000
 12 C      6.0068     6.0000    -0.0068     3.6230     3.6230    -0.0000
 13 H      0.8829     1.0000     0.1171     0.9388     0.9388    -0.0000
 14 H      0.8476     1.0000     0.1524     0.9251     0.9251     0.0000
 15 O      8.5249     8.0000    -0.5249     1.7282     1.7282     0.0000
 16 C      5.9424     6.0000     0.0576     3.5974     3.5974    -0.0000
 17 C      5.9093     6.0000     0.0907     3.6267     3.6267    -0.0000
 18 C      6.3093     6.0000    -0.3093     3.6923     3.6923     0.0000
 19 C      6.0269     6.0000    -0.0269     3.6643     3.6643     0.0000
 20 O      8.5264     8.0000    -0.5264     1.7622     1.7622     0.0000
 21 H      0.8262     1.0000     0.1738     0.9310     0.9310     0.0000
 22 O      8.6041     8.0000    -0.6041     1.7432     1.7432     0.0000
 23 H      0.8269     1.0000     0.1731     0.9408     0.9408    -0.0000
 24 H      0.8366     1.0000     0.1634     0.9397     0.9397    -0.0000
 25 H      0.8562     1.0000     0.1438     0.9351     0.9351     0.0000
 26 H      0.8571     1.0000     0.1429     0.9281     0.9281    -0.0000
 27 H      0.8498     1.0000     0.1502     0.9282     0.9282    -0.0000
 28 H      0.6361     1.0000     0.3639     0.8330     0.8330     0.0000

  Mayer bond orders larger than 0.100000
B(  0-C ,  1-C ) :   0.9268 B(  0-C ,  4-O ) :   0.9382 B(  0-C ,  5-H ) :   0.9238 
B(  0-C , 15-O ) :   0.8328 B(  1-C ,  2-C ) :   0.9505 B(  1-C ,  6-H ) :   0.9328 
B(  1-C ,  7-H ) :   0.9267 B(  2-C ,  3-C ) :   0.9536 B(  2-C ,  8-H ) :   0.9449 
B(  2-C ,  9-H ) :   0.9345 B(  3-C ,  4-O ) :   0.8360 B(  3-C , 10-H ) :   0.9333 
B(  3-C , 11-H ) :   0.9390 B( 12-C , 13-H ) :   0.9105 B( 12-C , 14-H ) :   0.9188 
B( 12-C , 15-O ) :   0.8338 B( 12-C , 16-C ) :   0.9041 B( 16-C , 17-C ) :   0.9117 
B( 16-C , 20-O ) :   0.8404 B( 16-C , 21-H ) :   0.9236 B( 17-C , 18-C ) :   0.9110 
B( 17-C , 22-O ) :   0.8859 B( 17-C , 23-H ) :   0.9155 B( 18-C , 19-C ) :   0.9396 
B( 18-C , 24-H ) :   0.9381 B( 18-C , 25-H ) :   0.9318 B( 19-C , 20-O ) :   0.8445 
B( 19-C , 26-H ) :   0.9362 B( 19-C , 27-H ) :   0.9372 B( 22-O , 28-H ) :   0.7946 


-------
TIMINGS
-------

Total SCF time: 0 days 0 hours 0 min 59 sec 

Total time                  ....      59.090 sec
Sum of individual times     ....      58.437 sec  ( 98.9%)

Fock matrix formation       ....      53.153 sec  ( 90.0%)
  XC integration            ....       4.737 sec  (  8.9% of F)
    Basis function eval.    ....       1.797 sec  ( 37.9% of XC)
    Density eval.           ....       0.948 sec  ( 20.0% of XC)
    XC-Functional eval.     ....       0.377 sec  (  8.0% of XC)
    XC-Potential eval.      ....       1.052 sec  ( 22.2% of XC)
Diagonalization             ....       0.009 sec  (  0.0%)
Density matrix formation    ....       0.003 sec  (  0.0%)
Population analysis         ....       0.035 sec  (  0.1%)
Initial guess               ....       0.012 sec  (  0.0%)
Orbital Transformation      ....       0.000 sec  (  0.0%)
Orbital Orthonormalization  ....       0.007 sec  (  0.0%)
DIIS solution               ....       0.002 sec  (  0.0%)
SOSCF solution              ....       0.071 sec  (  0.1%)
Grid generation             ....       5.152 sec  (  8.7%)

-------------------------   --------------------
FINAL SINGLE POINT ENERGY      -652.856460449183
-------------------------   --------------------

                                *** OPTIMIZATION RUN DONE ***

                            ***************************************
                            *     ORCA property calculations      *
                            ***************************************

                                    ---------------------
                                    Active property flags
                                    ---------------------
   (+) Dipole Moment


------------------------------------------------------------------------------
                       ORCA ELECTRIC PROPERTIES CALCULATION
------------------------------------------------------------------------------

Dipole Moment Calculation                       ... on
Quadrupole Moment Calculation                   ... off
Polarizability Calculation                      ... off
GBWName                                         ... project_8050/ensemble_165_210.gbw
Electron density file                           ... project_8050/ensemble_165_210.scfp
The origin for moment calculation is the CENTER OF MASS  = (-43.033774, 52.920419 87.416764)

-------------
DIPOLE MOMENT
-------------
                                X             Y             Z
Electronic contribution:     -4.61224      -4.87465       1.03511
Nuclear contribution   :      5.67918       6.05231      -1.91681
                        -----------------------------------------
Total Dipole Moment    :      1.06694       1.17766      -0.88170
                        -----------------------------------------
Magnitude (a.u.)       :      1.81731
Magnitude (Debye)      :      4.61925



--------------------
Rotational spectrum 
--------------------
 
Rotational constants in cm-1:     0.048051     0.015101     0.014384 
Rotational constants in MHz :  1440.528832   452.723116   431.216410 

 Dipole components along the rotational axes: 
x,y,z [a.u.] :    -0.021312    -0.151405     1.810871 
x,y,z [Debye]:    -0.054170    -0.384840     4.602869 

 

Timings for individual modules:

Sum of individual times         ...     1348.059 sec (=  22.468 min)
GTO integral calculation        ...        3.684 sec (=   0.061 min)   0.3 %
SCF iterations                  ...     1022.114 sec (=  17.035 min)  75.8 %
SCF Gradient evaluation         ...      315.931 sec (=   5.266 min)  23.4 %
Geometry relaxation             ...        6.331 sec (=   0.106 min)   0.5 %
                             ****ORCA TERMINATED NORMALLY****
TOTAL RUN TIME: 0 days 0 hours 22 minutes 41 seconds 786 msec
