
                                 *****************
                                 * O   R   C   A *
                                 *****************

           --- An Ab Initio, DFT and Semiempirical electronic structure package ---

                  #######################################################
                  #                        -***-                        #
                  #          Department of theory and spectroscopy      #
                  #               Directorship: Frank Neese             #
                  #        Max Planck Institute fuer Kohlenforschung    #
                  #                Kaiser Wilhelm Platz 1               #
                  #                 D-45470 Muelheim/Ruhr               #
                  #                      Germany                        #
                  #                                                     #
                  #                  All rights reserved                #
                  #                        -***-                        #
                  #######################################################


                         Program Version 4.2.0 -  RELEASE  -


 With contributions from (in alphabetic order):
   Daniel Aravena         : Magnetic Suceptibility
   Michael Atanasov       : Ab Initio Ligand Field Theory (pilot matlab implementation)
   Alexander A. Auer      : GIAO ZORA, VPT2
   Ute Becker             : Parallelization
   Giovanni Bistoni       : ED, misc. LED, open-shell LED, HFLED
   Martin Brehm           : Molecular dynamics
   Dmytro Bykov           : SCF Hessian
   Vijay G. Chilkuri      : MRCI spin determinant printing, contributions to CSF-ICE
   Dipayan Datta          : RHF DLPNO-CCSD density
   Achintya Kumar Dutta   : EOM-CC, STEOM-CC
   Dmitry Ganyushin       : Spin-Orbit,Spin-Spin,Magnetic field MRCI
   Miquel Garcia          : C-PCM Hessian, Gaussian charge scheme
   Yang Guo               : DLPNO-NEVPT2, CIM, IAO-localization
   Andreas Hansen         : Spin unrestricted coupled pair/coupled cluster methods
   Benjamin Helmich-Paris : CASSCF linear response (MC-RPA)
   Lee Huntington         : MR-EOM, pCC
   Robert Izsak           : Overlap fitted RIJCOSX, COSX-SCS-MP3, EOM
   Christian Kollmar      : KDIIS, OOCD, Brueckner-CCSD(T), CCSD density
   Simone Kossmann        : Meta GGA functionals, TD-DFT gradient, OOMP2, MP2 Hessian
   Martin Krupicka        : AUTO-CI
   Lucas Lang             : DCDCAS
   Dagmar Lenk            : GEPOL surface, SMD
   Dimitrios Liakos       : Extrapolation schemes; Compound Job, initial MDCI parallelization
   Dimitrios Manganas     : Further ROCIS development; embedding schemes
   Dimitrios Pantazis     : SARC Basis sets
   Taras Petrenko         : DFT Hessian,TD-DFT gradient, ASA, ECA, R-Raman, ABS, FL, XAS/XES, NRVS
   Peter Pinski           : DLPNO-MP2, DLPNO-MP2 Gradient
   Christoph Reimann      : Effective Core Potentials
   Marius Retegan         : Local ZFS, SOC
   Christoph Riplinger    : Optimizer, TS searches, QM/MM, DLPNO-CCSD(T), (RO)-DLPNO pert. Triples
   Tobias Risthaus        : Range-separated hybrids, TD-DFT gradient, RPA, STAB
   Michael Roemelt        : Original ROCIS implementation
   Masaaki Saitow         : Open-shell DLPNO-CCSD energy and density
   Barbara Sandhoefer     : DKH picture change effects
   Avijit Sen             : IP-ROCIS
   Kantharuban Sivalingam : CASSCF convergence, NEVPT2, FIC-MRCI
   Bernardo de Souza      : ESD, SOC TD-DFT
   Georgi Stoychev        : AutoAux, RI-MP2 NMR
   Willem Van den Heuvel  : Paramagnetic NMR
   Boris Wezisla          : Elementary symmetry handling
   Frank Wennmohs         : Technical directorship


 We gratefully acknowledge several colleagues who have allowed us to
 interface, adapt or use parts of their codes:
   Stefan Grimme, W. Hujo, H. Kruse,             : VdW corrections, initial TS optimization,
                  C. Bannwarth                     DFT functionals, gCP, sTDA/sTD-DF
   Ed Valeev, F. Pavosevic, A. Kumar             : LibInt (2-el integral package), F12 methods
   Garnet Chan, S. Sharma, J. Yang, R. Olivares  : DMRG
   Ulf Ekstrom                                   : XCFun DFT Library
   Mihaly Kallay                                 : mrcc  (arbitrary order and MRCC methods)
   Andreas Klamt, Michael Diedenhofen            : otool_cosmo (COSMO solvation model)
   Jiri Pittner, Ondrej Demel                    : Mk-CCSD
   Frank Weinhold                                : gennbo (NPA and NBO analysis)
   Christopher J. Cramer and Donald G. Truhlar   : smd solvation model
   Lars Goerigk                                  : TD-DFT with DH, B97 family of functionals
   V. Asgeirsson, H. Jonsson                     : NEB implementation
   FAccTs GmbH                                   : IRC, NEB, NEB-TS, Multilevel, MM, QM/MM, CI optimization
   S Lehtola, MJT Oliveira, MAL Marques          : LibXC Library


 Your calculation uses the libint2 library for the computation of 2-el integrals
 For citations please refer to: http://libint.valeyev.net

 Your ORCA version has been built with support for libXC version: 4.2.3
 For citations please refer to: https://tddft.org/programs/libxc/

 This ORCA versions uses:
   CBLAS   interface :  Fast vector & matrix operations
   LAPACKE interface :  Fast linear algebra routines
   SCALAPACK package :  Parallel linear algebra routines


----- Orbital basis set information -----
Your calculation utilizes the basis: 6-31G
   H-He, Li-Ne : W. J. Hehre, R. Ditchfield and J.A. Pople, J. Chem. Phys. 56, 2257 (1972).
                 Note: He and Ne are unpublished basis sets taken from the Gaussian program.
                 Note: Li and B from J. D. Dill and J. A. Pople, J. Chem. Phys. 62, 2921 (1975).
   Na - Ar     : M. M. Francl, W. J. Pietro, W. J. Hehre, J. S. Binkley, M. S. Gordon, 
                 D. J. DeFrees and J. A. Pople, J. Chem. Phys. 77, 3654 (1982).
   K - Zn      : V. A. Rassolov, J. A. Pople, M. A. Ratner, and T. L. Windus, J. Chem. Phys. 109, 1223 (1998).

================================================================================
                                        WARNINGS
                       Please study these warnings very carefully!
================================================================================


WARNING: Geometry Optimization
  ===> : Switching off AutoStart
         For restart on a previous wavefunction, please use MOREAD

INFO   : the flag for use of LIBINT has been found!

================================================================================
                                       INPUT FILE
================================================================================
NAME = project_8052/ensemble_330_195.inp
|  1> # Test redundant internal optimization
|  2> #
|  3> ! RKS B3LYP  Opt TightSCF SmallPrint
|  4> 
|  5> %basis
|  6>         Basis "6-31G"
|  7> end
|  8> 
|  9> %geom
| 10> Constraints
| 11> { D 4  0  15  12  330.0   C } # D for Dihedral angle
| 12> { D 0  15  12  16  195.0   C } # D for Dihedral angle
| 13> { D 0  4  3  2   C } # D for Dihedral angle
| 14> { D 4  3  2  1   C } # D for Dihedral angle
| 15> { D 3  2  1  0   C } # D for Dihedral angle
| 16> { D 2  1  0  4   C } # D for Dihedral angle
| 17> { D 1  0  4  3   C } # D for Dihedral angle
| 18> { D 16  20  19  18   C } # D for Dihedral angle
| 19> { D 20  19  18  17   C } # D for Dihedral angle
| 20> { D 19  18  17  16   C } # D for Dihedral angle
| 21> { D 18  17  16  20   C } # D for Dihedral angle
| 22> { D 17  16  20  19   C } # D for Dihedral angle
| 23> { D 15  12  16  20   C } # D for Dihedral angle
| 24> end
| 25> end
| 26> 
| 27> 
| 28> #%pal 
| 29> #nprocs 8
| 30> #end
| 31> 
| 32> * xyz 0 1
| 33> C  -21.048   26.222   46.251
| 34> C  -20.361   27.558   45.944
| 35> C  -20.329   28.222   47.341
| 36> C  -20.110   27.022   48.296
| 37> O  -20.473   25.807   47.535
| 38> H  -20.833   25.428   45.533
| 39> H  -19.344   27.382   45.576
| 40> H  -20.898   28.157   45.201
| 41> H  -19.543   28.978   47.434
| 42> H  -21.289   28.710   47.548
| 43> H  -20.733   27.082   49.195
| 44> H  -19.064   26.913   48.597
| 45> C  -23.271   25.476   47.424
| 46> H  -22.873   24.458   47.329
| 47> H  -23.062   25.832   48.441
| 48> O  -22.586   26.394   46.375
| 49> C  -24.814   25.415   47.253
| 50> C  -25.466   24.595   48.371
| 51> C  -25.481   25.612   49.537
| 52> C  -25.731   26.963   48.822
| 53> O  -25.399   26.752   47.397
| 54> H  -25.049   25.070   46.244
| 55> O  -26.914   24.201   47.969
| 56> H  -24.914   23.680   48.613
| 57> H  -26.248   25.388   50.286
| 58> H  -24.509   25.618   50.045
| 59> H  -25.106   27.770   49.220
| 60> H  -26.780   27.272   48.867
| 61> H  -27.486   25.102   47.723
| 62> *
| 63> 
| 64>                          ****END OF INPUT****
================================================================================

                       *****************************
                       * Geometry Optimization Run *
                       *****************************

Geometry optimization settings:
Update method            Update   .... BFGS
Choice of coordinates    CoordSys .... Z-matrix Internals
Initial Hessian          InHess   .... Almoef's Model

Convergence Tolerances:
Energy Change            TolE     ....  5.0000e-06 Eh
Max. Gradient            TolMAXG  ....  3.0000e-04 Eh/bohr
RMS Gradient             TolRMSG  ....  1.0000e-04 Eh/bohr
Max. Displacement        TolMAXD  ....  4.0000e-03 bohr
RMS Displacement         TolRMSD  ....  2.0000e-03 bohr
Strict Convergence                ....  False
------------------------------------------------------------------------------
                        ORCA OPTIMIZATION COORDINATE SETUP
------------------------------------------------------------------------------

The optimization will be done in new redundant internal coordinates
Making redundant internal coordinates   ...  (new redundants) done
Evaluating the initial hessian          ...  (Almloef) done
Evaluating the coordinates              ...  done
Calculating the B-matrix                .... done
Calculating the G-matrix                .... done
Diagonalizing the G-matrix              .... done
Imposing constraints:
 Iter   0:  RMS(Cart)=    0.0000640725 RMS(Int)=    0.0000278905
 Iter   1:  RMS(Cart)=    0.0000306013 RMS(Int)=    0.0000151685
 Iter   2:  RMS(Cart)=    0.0000147090 RMS(Int)=    0.0000089402
 Iter   3:  RMS(Cart)=    0.0000071196 RMS(Int)=    0.0000059301
 Iter   4:  RMS(Cart)=    0.0000034911 RMS(Int)=    0.0000045023
 Iter   5:  RMS(Cart)=    0.0000017664 RMS(Int)=    0.0000038165
 Iter   6:  RMS(Cart)=    0.0000009605 RMS(Int)=    0.0000034603
 Iter   7:  RMS(Cart)=    0.0000005974 RMS(Int)=    0.0000032486
 Iter   8:  RMS(Cart)=    0.0000004449 RMS(Int)=    0.0000031023
 Iter   9:  RMS(Cart)=    0.0000003885 RMS(Int)=    0.0000029873
 Iter  10:  RMS(Cart)=    0.0000003726 RMS(Int)=    0.0000028886
 Iter  11:  RMS(Cart)=    0.0000003716 RMS(Int)=    0.0000027991
 Iter  12:  RMS(Cart)=    0.0000003744 RMS(Int)=    0.0000027154
 Iter  13:  RMS(Cart)=    0.0000003765 RMS(Int)=    0.0000026359
 Iter  14:  RMS(Cart)=    0.0000003765 RMS(Int)=    0.0000025596
 Iter  15:  RMS(Cart)=    0.0000003741 RMS(Int)=    0.0000024861
 Iter  16:  RMS(Cart)=    0.0000003697 RMS(Int)=    0.0000024151
 Iter  17:  RMS(Cart)=    0.0000003637 RMS(Int)=    0.0000023464
 Iter  18:  RMS(Cart)=    0.0000003566 RMS(Int)=    0.0000022800
 Iter  19:  RMS(Cart)=    0.0000003487 RMS(Int)=    0.0000022156
 Iter  20:  RMS(Cart)=    0.0000003404 RMS(Int)=    0.0000021533
 Iter  21:  RMS(Cart)=    0.0000003317 RMS(Int)=    0.0000020929
 Iter  22:  RMS(Cart)=    0.0000003230 RMS(Int)=    0.0000020344
 Iter  23:  RMS(Cart)=    0.0000003142 RMS(Int)=    0.0000019777
 Iter  24:  RMS(Cart)=    0.0000003056 RMS(Int)=    0.0000019228
 Iter  25:  RMS(Cart)=    0.0000002970 RMS(Int)=    0.0000018696
 Iter  26:  RMS(Cart)=    0.0000002886 RMS(Int)=    0.0000018180
 Iter  27:  RMS(Cart)=    0.0000002805 RMS(Int)=    0.0000017680
 Iter  28:  RMS(Cart)=    0.0000002725 RMS(Int)=    0.0000017196
 Iter  29:  RMS(Cart)=    0.0000002647 RMS(Int)=    0.0000016726
 Iter  30:  RMS(Cart)=    0.0000002572 RMS(Int)=    0.0000016270
 Iter  31:  RMS(Cart)=    0.0000002499 RMS(Int)=    0.0000015829
 Iter  32:  RMS(Cart)=    0.0000002428 RMS(Int)=    0.0000015401
 Iter  33:  RMS(Cart)=    0.0000002358 RMS(Int)=    0.0000014986
 Iter  34:  RMS(Cart)=    0.0000002292 RMS(Int)=    0.0000014583
 Iter  35:  RMS(Cart)=    0.0000002227 RMS(Int)=    0.0000014193
 Iter  36:  RMS(Cart)=    0.0000002164 RMS(Int)=    0.0000013814
 Iter  37:  RMS(Cart)=    0.0000002102 RMS(Int)=    0.0000013447
 Iter  38:  RMS(Cart)=    0.0000002043 RMS(Int)=    0.0000013091
 Iter  39:  RMS(Cart)=    0.0000001986 RMS(Int)=    0.0000012746
 Iter  40:  RMS(Cart)=    0.0000001930 RMS(Int)=    0.0000012411
 Iter  41:  RMS(Cart)=    0.0000001876 RMS(Int)=    0.0000012085
 Iter  42:  RMS(Cart)=    0.0000001824 RMS(Int)=    0.0000011770
 Iter  43:  RMS(Cart)=    0.0000001773 RMS(Int)=    0.0000011464
 Iter  44:  RMS(Cart)=    0.0000001723 RMS(Int)=    0.0000011167
 Iter  45:  RMS(Cart)=    0.0000001676 RMS(Int)=    0.0000010879
 Iter  46:  RMS(Cart)=    0.0000001629 RMS(Int)=    0.0000010599
 Iter  47:  RMS(Cart)=    0.0000001584 RMS(Int)=    0.0000010328
 Iter  48:  RMS(Cart)=    0.0000001540 RMS(Int)=    0.0000010064
 Iter  49:  RMS(Cart)=    0.0000001498 RMS(Int)=    0.0000009808
 Iter  50:  RMS(Cart)=    0.0000001457 RMS(Int)=    0.0000009560
 Iter  51:  RMS(Cart)=    0.0000001417 RMS(Int)=    0.0000009319
 Iter  52:  RMS(Cart)=    0.0000001378 RMS(Int)=    0.0000009085
 Iter  53:  RMS(Cart)=    0.0000001341 RMS(Int)=    0.0000008858
 Iter  54:  RMS(Cart)=    0.0000001304 RMS(Int)=    0.0000008637
 Iter  55:  RMS(Cart)=    0.0000001269 RMS(Int)=    0.0000008423
 Iter  56:  RMS(Cart)=    0.0000001234 RMS(Int)=    0.0000008215
 Iter  57:  RMS(Cart)=    0.0000001201 RMS(Int)=    0.0000008013
 Iter  58:  RMS(Cart)=    0.0000001169 RMS(Int)=    0.0000007817
 Iter  59:  RMS(Cart)=    0.0000001137 RMS(Int)=    0.0000007627
 Iter  60:  RMS(Cart)=    0.0000001107 RMS(Int)=    0.0000007441
 Iter  61:  RMS(Cart)=    0.0000001077 RMS(Int)=    0.0000007262
 Iter  62:  RMS(Cart)=    0.0000001048 RMS(Int)=    0.0000007087
 Iter  63:  RMS(Cart)=    0.0000001020 RMS(Int)=    0.0000006917
 Iter  64:  RMS(Cart)=    0.0000000993 RMS(Int)=    0.0000006752
 Iter  65:  RMS(Cart)=    0.0000000967 RMS(Int)=    0.0000006592
 Iter  66:  RMS(Cart)=    0.0000000941 RMS(Int)=    0.0000006437
 Iter  67:  RMS(Cart)=    0.0000000916 RMS(Int)=    0.0000006285
 Iter  68:  RMS(Cart)=    0.0000000892 RMS(Int)=    0.0000006138
 Iter  69:  RMS(Cart)=    0.0000000868 RMS(Int)=    0.0000005996
 Iter  70:  RMS(Cart)=    0.0000000846 RMS(Int)=    0.0000005857
 Iter  71:  RMS(Cart)=    0.0000000823 RMS(Int)=    0.0000005722
 Iter  72:  RMS(Cart)=    0.0000000802 RMS(Int)=    0.0000005590
 Iter  73:  RMS(Cart)=    0.0000000781 RMS(Int)=    0.0000005463
 Iter  74:  RMS(Cart)=    0.0000000761 RMS(Int)=    0.0000005339
 Iter  75:  RMS(Cart)=    0.0000000741 RMS(Int)=    0.0000005218
 Iter  76:  RMS(Cart)=    0.0000000722 RMS(Int)=    0.0000005101
 Iter  77:  RMS(Cart)=    0.0000000703 RMS(Int)=    0.0000004987
 Iter  78:  RMS(Cart)=    0.0000000685 RMS(Int)=    0.0000004876
 Iter  79:  RMS(Cart)=    0.0000000667 RMS(Int)=    0.0000004768
 Iter  80:  RMS(Cart)=    0.0000000650 RMS(Int)=    0.0000004663
 Iter  81:  RMS(Cart)=    0.0000000634 RMS(Int)=    0.0000004561
 Iter  82:  RMS(Cart)=    0.0000000617 RMS(Int)=    0.0000004462
 Iter  83:  RMS(Cart)=    0.0000000602 RMS(Int)=    0.0000004365
 Iter  84:  RMS(Cart)=    0.0000000586 RMS(Int)=    0.0000004271
 Iter  85:  RMS(Cart)=    0.0000000571 RMS(Int)=    0.0000004180
 Iter  86:  RMS(Cart)=    0.0000000557 RMS(Int)=    0.0000004091
 Iter  87:  RMS(Cart)=    0.0000000543 RMS(Int)=    0.0000004004
 Iter  88:  RMS(Cart)=    0.0000000529 RMS(Int)=    0.0000003920
 Iter  89:  RMS(Cart)=    0.0000000516 RMS(Int)=    0.0000003838
 Iter  90:  RMS(Cart)=    0.0000000503 RMS(Int)=    0.0000003758
 Iter  91:  RMS(Cart)=    0.0000000491 RMS(Int)=    0.0000003680
 Iter  92:  RMS(Cart)=    0.0000000478 RMS(Int)=    0.0000003605
 Iter  93:  RMS(Cart)=    0.0000000467 RMS(Int)=    0.0000003531
 Iter  94:  RMS(Cart)=    0.0000000455 RMS(Int)=    0.0000003459
 Iter  95:  RMS(Cart)=    0.0000000444 RMS(Int)=    0.0000003389
 Iter  96:  RMS(Cart)=    0.0000000433 RMS(Int)=    0.0000003321
 Iter  97:  RMS(Cart)=    0.0000000422 RMS(Int)=    0.0000003255
 Iter  98:  RMS(Cart)=    0.0000000412 RMS(Int)=    0.0000003190
 Iter  99:  RMS(Cart)=    0.0000000402 RMS(Int)=    0.0000003127
 RMS(Cart) too big - taking linear step, building new B-matrix and trying again
Imposing constraints:
 Iter   0:  RMS(Cart)=    0.0000306013 RMS(Int)=    0.0000151686
 Iter   1:  RMS(Cart)=    0.0000147092 RMS(Int)=    0.0000089403
 Iter   2:  RMS(Cart)=    0.0000071198 RMS(Int)=    0.0000059301
 Iter   3:  RMS(Cart)=    0.0000034912 RMS(Int)=    0.0000045023
 Iter   4:  RMS(Cart)=    0.0000017665 RMS(Int)=    0.0000038164
 Iter   5:  RMS(Cart)=    0.0000009606 RMS(Int)=    0.0000034603
 Iter   6:  RMS(Cart)=    0.0000005975 RMS(Int)=    0.0000032486
 Iter   7:  RMS(Cart)=    0.0000004450 RMS(Int)=    0.0000031023
 Iter   8:  RMS(Cart)=    0.0000003885 RMS(Int)=    0.0000029873
 Iter   9:  RMS(Cart)=    0.0000003726 RMS(Int)=    0.0000028886
 Iter  10:  RMS(Cart)=    0.0000003716 RMS(Int)=    0.0000027991
 Iter  11:  RMS(Cart)=    0.0000003744 RMS(Int)=    0.0000027154
 Iter  12:  RMS(Cart)=    0.0000003765 RMS(Int)=    0.0000026358
 Iter  13:  RMS(Cart)=    0.0000003765 RMS(Int)=    0.0000025596
 Iter  14:  RMS(Cart)=    0.0000003741 RMS(Int)=    0.0000024861
 Iter  15:  RMS(Cart)=    0.0000003697 RMS(Int)=    0.0000024151
 Iter  16:  RMS(Cart)=    0.0000003637 RMS(Int)=    0.0000023464
 Iter  17:  RMS(Cart)=    0.0000003566 RMS(Int)=    0.0000022800
 Iter  18:  RMS(Cart)=    0.0000003487 RMS(Int)=    0.0000022156
 Iter  19:  RMS(Cart)=    0.0000003404 RMS(Int)=    0.0000021533
 Iter  20:  RMS(Cart)=    0.0000003317 RMS(Int)=    0.0000020929
 Iter  21:  RMS(Cart)=    0.0000003230 RMS(Int)=    0.0000020344
 Iter  22:  RMS(Cart)=    0.0000003142 RMS(Int)=    0.0000019777
 Iter  23:  RMS(Cart)=    0.0000003055 RMS(Int)=    0.0000019228
 Iter  24:  RMS(Cart)=    0.0000002970 RMS(Int)=    0.0000018696
 Iter  25:  RMS(Cart)=    0.0000002886 RMS(Int)=    0.0000018180
 Iter  26:  RMS(Cart)=    0.0000002805 RMS(Int)=    0.0000017680
 Iter  27:  RMS(Cart)=    0.0000002725 RMS(Int)=    0.0000017196
 Iter  28:  RMS(Cart)=    0.0000002647 RMS(Int)=    0.0000016726
 Iter  29:  RMS(Cart)=    0.0000002572 RMS(Int)=    0.0000016271
 Iter  30:  RMS(Cart)=    0.0000002499 RMS(Int)=    0.0000015829
 Iter  31:  RMS(Cart)=    0.0000002427 RMS(Int)=    0.0000015401
 Iter  32:  RMS(Cart)=    0.0000002358 RMS(Int)=    0.0000014986
 Iter  33:  RMS(Cart)=    0.0000002291 RMS(Int)=    0.0000014584
 Iter  34:  RMS(Cart)=    0.0000002227 RMS(Int)=    0.0000014193
 Iter  35:  RMS(Cart)=    0.0000002164 RMS(Int)=    0.0000013815
 Iter  36:  RMS(Cart)=    0.0000002102 RMS(Int)=    0.0000013447
 Iter  37:  RMS(Cart)=    0.0000002043 RMS(Int)=    0.0000013091
 Iter  38:  RMS(Cart)=    0.0000001986 RMS(Int)=    0.0000012746
 Iter  39:  RMS(Cart)=    0.0000001930 RMS(Int)=    0.0000012411
 Iter  40:  RMS(Cart)=    0.0000001876 RMS(Int)=    0.0000012086
 Iter  41:  RMS(Cart)=    0.0000001824 RMS(Int)=    0.0000011770
 Iter  42:  RMS(Cart)=    0.0000001773 RMS(Int)=    0.0000011464
 Iter  43:  RMS(Cart)=    0.0000001723 RMS(Int)=    0.0000011167
 Iter  44:  RMS(Cart)=    0.0000001676 RMS(Int)=    0.0000010879
 Iter  45:  RMS(Cart)=    0.0000001629 RMS(Int)=    0.0000010599
 Iter  46:  RMS(Cart)=    0.0000001584 RMS(Int)=    0.0000010328
 Iter  47:  RMS(Cart)=    0.0000001540 RMS(Int)=    0.0000010064
 Iter  48:  RMS(Cart)=    0.0000001498 RMS(Int)=    0.0000009809
CONVERGED
Small eigenvalue found = 7.466e-03
Small eigenvalue found = 1.259e-02
Small eigenvalue found = 1.780e-02
The first mode is                       ....   91
The number of degrees of freedom        ....   81
Storing new coordinates                 .... done

    -----------------------------------------------------------------
                    Redundant Internal Coordinates


    -----------------------------------------------------------------
         Definition                    Initial Value    Approx d2E/dq
    -----------------------------------------------------------------
      1. B(C   1,C   0)                  1.5333         0.369027   
      2. B(C   2,C   1)                  1.5471         0.350825   
      3. B(C   3,C   2)                  1.5492         0.348147   
      4. B(O   4,C   0)                  1.4668         0.422031   
      5. B(O   4,C   3)                  1.4789         0.403699   
      6. B(H   5,C   0)                  1.0919         0.357632   
      7. B(H   6,C   1)                  1.0958         0.352561   
      8. B(H   7,C   1)                  1.0951         0.353431   
      9. B(H   8,C   2)                  1.0945         0.354166   
     10. B(H   9,C   2)                  1.0966         0.351438   
     11. B(H  10,C   3)                  1.0954         0.353010   
     12. B(H  11,C   3)                  1.0939         0.354989   
     13. B(H  13,C  12)                  1.0972         0.350756   
     14. B(H  14,C  12)                  1.0976         0.350197   
     15. B(O  15,C   0)                  1.5525         0.307993   
     16. B(O  15,C  12)                  1.5532         0.307285   
     17. B(C  16,C  12)                  1.5536         0.342495   
     18. B(C  17,C  16)                  1.5321         0.370660   
     19. B(C  18,C  17)                  1.5473         0.350599   
     20. B(C  19,C  18)                  1.5488         0.348585   
     21. B(O  20,C  16)                  1.4665         0.422547   
     22. B(O  20,C  19)                  1.4783         0.404575   
     23. B(H  21,C  16)                  1.0919         0.357544   
     24. B(O  22,C  17)                  1.5536         0.306852   
     25. B(H  23,C  17)                  1.0957         0.352677   
     26. B(H  24,C  18)                  1.0952         0.353285   
     27. B(H  25,C  18)                  1.0968         0.351267   
     28. B(H  26,C  19)                  1.0956         0.352804   
     29. B(H  27,C  19)                  1.0945         0.354210   
     30. B(H  28,O  22)                  1.0952         0.316400   
     31. A(O   4,C   0,H   5)          107.0219         0.328541   
     32. A(C   1,C   0,O  15)          111.3017         0.348740   
     33. A(C   1,C   0,O   4)          104.2484         0.367935   
     34. A(O   4,C   0,O  15)          110.4736         0.354548   
     35. A(C   1,C   0,H   5)          114.4375         0.323302   
     36. A(H   5,C   0,O  15)          109.1579         0.312058   
     37. A(C   0,C   1,C   2)          101.6797         0.358729   
     38. A(C   2,C   1,H   7)          112.8318         0.320016   
     39. A(C   2,C   1,H   6)          110.6709         0.319888   
     40. A(C   0,C   1,H   6)          110.0676         0.322546   
     41. A(H   6,C   1,H   7)          108.3682         0.289027   
     42. A(C   0,C   1,H   7)          113.1242         0.322677   
     43. A(C   1,C   2,H   8)          112.8319         0.320125   
     44. A(C   1,C   2,C   3)          103.1266         0.355196   
     45. A(C   1,C   2,H   9)          110.0801         0.319721   
     46. A(C   3,C   2,H   9)          110.6152         0.319321   
     47. A(C   3,C   2,H   8)          112.4039         0.319725   
     48. A(H   8,C   2,H   9)          107.7728         0.288977   
     49. A(O   4,C   3,H  10)          109.1298         0.325449   
     50. A(C   2,C   3,H  10)          112.5253         0.319554   
     51. A(C   2,C   3,O   4)          106.5276         0.361529   
     52. A(O   4,C   3,H  11)          107.1237         0.325748   
     53. A(H  10,C   3,H  11)          108.8728         0.289284   
     54. A(C   2,C   3,H  11)          112.4566         0.319846   
     55. A(C   0,O   4,C   3)          108.3148         0.371320   
     56. A(H  14,C  12,C  16)          107.6906         0.318286   
     57. A(H  13,C  12,H  14)          108.1859         0.288379   
     58. A(H  13,C  12,O  15)          109.2656         0.310964   
     59. A(H  14,C  12,O  15)          110.4937         0.310884   
     60. A(O  15,C  12,C  16)          112.7606         0.344258   
     61. A(H  13,C  12,C  16)          108.3163         0.318369   
     62. A(C   0,O  15,C  12)          115.1736         0.336146   
     63. A(C  12,C  16,C  17)          111.3054         0.357534   
     64. A(C  12,C  16,O  20)          110.4616         0.363340   
     65. A(C  17,C  16,O  20)          104.2730         0.368291   
     66. A(C  12,C  16,H  21)          109.1380         0.319366   
     67. A(C  17,C  16,H  21)          114.4310         0.323524   
     68. A(O  20,C  16,H  21)          107.0339         0.328594   
     69. A(C  16,C  17,C  18)          101.6676         0.358959   
     70. A(C  16,C  17,O  22)          110.0934         0.348782   
     71. A(C  18,C  17,O  22)          110.6498         0.345531   
     72. A(C  16,C  17,H  23)          113.1866         0.322797   
     73. A(C  18,C  17,H  23)          112.7893         0.319871   
     74. A(O  22,C  17,H  23)          108.3566         0.311167   
     75. A(C  17,C  18,C  19)          103.1212         0.355233   
     76. A(C  17,C  18,H  24)          112.8130         0.319961   
     77. A(C  19,C  18,H  24)          112.4000         0.319660   
     78. A(C  17,C  18,H  25)          110.1238         0.319662   
     79. A(C  19,C  18,H  25)          110.6157         0.319361   
     80. A(H  24,C  18,H  25)          107.7591         0.288842   
     81. A(C  18,C  19,O  20)          106.5134         0.361740   
     82. A(C  18,C  19,H  26)          112.5026         0.319589   
     83. A(O  20,C  19,H  26)          109.0989         0.325533   
     84. A(C  18,C  19,H  27)          112.4565         0.319797   
     85. A(O  20,C  19,H  27)          107.1682         0.325746   
     86. A(H  26,C  19,H  27)          108.8972         0.289158   
     87. A(C  16,O  20,C  19)          108.3229         0.371537   
     88. A(C  17,O  22,H  28)          109.6496         0.303250   
     89. D(H   7,C   1,C   0,H   5)     82.1516         0.010890   
     90. D(C   2,C   1,C   0,O  15)     79.0867         0.010890   
     91. D(H   7,C   1,C   0,O  15)    -42.1869         0.010890   
     92. D(H   6,C   1,C   0,O   4)     77.3260         0.010890   
     93. D(H   6,C   1,C   0,O  15)   -163.5727         0.010890   
     94. D(H   6,C   1,C   0,H   5)    -39.2342         0.010890   
     95. D(H   7,C   1,C   0,O   4)   -161.2881         0.010890   
     96. D(C   2,C   1,C   0,O   4)    -40.0145         0.010890 C 
     97. D(C   2,C   1,C   0,H   5)   -156.5748         0.010890   
     98. D(H   9,C   2,C   1,H   6)    160.0776         0.009912   
     99. D(H   8,C   2,C   1,C   0)    156.5479         0.009912   
    100. D(H   8,C   2,C   1,H   6)     39.6446         0.009912   
    101. D(C   3,C   2,C   1,C   0)     35.0270         0.009912 C 
    102. D(H   8,C   2,C   1,H   7)    -81.9752         0.009912   
    103. D(H   9,C   2,C   1,C   0)    -83.0191         0.009912   
    104. D(C   3,C   2,C   1,H   6)    -81.8763         0.009912   
    105. D(H   9,C   2,C   1,H   7)     38.4578         0.009912   
    106. D(C   3,C   2,C   1,H   7)    156.5039         0.009912   
    107. D(H  11,C   3,C   2,H   9)   -143.4628         0.009774   
    108. D(O   4,C   3,C   2,H   8)   -140.0066         0.009774   
    109. D(O   4,C   3,C   2,H   9)     99.4739         0.009774   
    110. D(H  10,C   3,C   2,C   1)   -137.7433         0.009774   
    111. D(H  10,C   3,C   2,H   8)    100.4468         0.009774   
    112. D(H  10,C   3,C   2,H   9)    -20.0727         0.009774   
    113. D(H  11,C   3,C   2,C   1)     98.8667         0.009774   
    114. D(O   4,C   3,C   2,C   1)    -18.1967         0.009774 C 
    115. D(H  11,C   3,C   2,H   8)    -22.9433         0.009774   
    116. D(C   3,O   4,C   0,C   1)     29.5918         0.014035 C 
    117. D(C   3,O   4,C   0,H   5)    151.2013         0.014035   
    118. D(C   3,O   4,C   0,O  15)    -90.0707         0.014035   
    119. D(C   0,O   4,C   3,C   2)     -6.8732         0.012866 C 
    120. D(C   0,O   4,C   3,H  10)    114.8547         0.012866   
    121. D(C   0,O   4,C   3,H  11)   -127.4272         0.012866   
    122. D(C   0,O  15,C  12,C  16)   -165.0000         0.007762 C 
    123. D(C  12,O  15,C   0,O   4)    -30.0000         0.007793 C 
    124. D(C  12,O  15,C   0,H   5)     87.4197         0.007793   
    125. D(C   0,O  15,C  12,H  14)     74.4284         0.007762   
    126. D(C   0,O  15,C  12,H  13)    -44.4918         0.007762   
    127. D(C  12,O  15,C   0,C   1)   -145.3131         0.007793   
    128. D(C  17,C  16,C  12,H  13)     63.6022         0.009485   
    129. D(H  21,C  16,C  12,H  14)    179.5696         0.009485   
    130. D(C  17,C  16,C  12,O  15)   -175.3473         0.009485   
    131. D(O  20,C  16,C  12,H  13)    178.9405         0.009485   
    132. D(O  20,C  16,C  12,H  14)     62.1544         0.009485   
    133. D(O  20,C  16,C  12,O  15)    -60.0090         0.009485 C 
    134. D(C  17,C  16,C  12,H  14)    -53.1839         0.009485   
    135. D(H  21,C  16,C  12,H  13)    -63.6442         0.009485   
    136. D(H  21,C  16,C  12,O  15)     57.4062         0.009485   
    137. D(C  18,C  17,C  16,C  12)     79.0958         0.010981   
    138. D(C  18,C  17,C  16,O  20)    -40.0075         0.010981 C 
    139. D(C  18,C  17,C  16,H  21)   -156.5946         0.010981   
    140. D(O  22,C  17,C  16,C  12)   -163.5831         0.010981   
    141. D(O  22,C  17,C  16,O  20)     77.3135         0.010981   
    142. D(O  22,C  17,C  16,H  21)    -39.2736         0.010981   
    143. D(H  23,C  17,C  16,C  12)    -42.1505         0.010981   
    144. D(H  23,C  17,C  16,O  20)   -161.2539         0.010981   
    145. D(H  23,C  17,C  16,H  21)     82.1590         0.010981   
    146. D(H  24,C  18,C  17,H  23)    -81.9361         0.009901   
    147. D(C  19,C  18,C  17,O  22)    -81.8790         0.009901   
    148. D(C  19,C  18,C  17,H  23)    156.5612         0.009901   
    149. D(H  24,C  18,C  17,C  16)    156.5412         0.009901   
    150. D(C  19,C  18,C  17,C  16)     35.0386         0.009901 C 
    151. D(H  24,C  18,C  17,O  22)     39.6236         0.009901   
    152. D(H  25,C  18,C  17,C  16)    -83.0251         0.009901   
    153. D(H  25,C  18,C  17,O  22)    160.0572         0.009901   
    154. D(H  25,C  18,C  17,H  23)     38.4975         0.009901   
    155. D(H  27,C  19,C  18,H  25)   -143.3889         0.009796   
    156. D(O  20,C  19,C  18,H  24)   -139.9977         0.009796   
    157. D(O  20,C  19,C  18,H  25)     99.5026         0.009796   
    158. D(H  26,C  19,C  18,C  17)   -137.7026         0.009796   
    159. D(H  26,C  19,C  18,H  24)    100.5157         0.009796   
    160. D(H  26,C  19,C  18,H  25)    -19.9839         0.009796   
    161. D(H  27,C  19,C  18,C  17)     98.8924         0.009796   
    162. D(O  20,C  19,C  18,C  17)    -18.2160         0.009796 C 
    163. D(H  27,C  19,C  18,H  24)    -22.8893         0.009796   
    164. D(C  19,O  20,C  16,C  12)    -90.0935         0.014069   
    165. D(C  19,O  20,C  16,C  17)     29.5815         0.014069 C 
    166. D(C  19,O  20,C  16,H  21)    151.2021         0.014069   
    167. D(C  16,O  20,C  19,C  18)     -6.8371         0.012920 C 
    168. D(C  16,O  20,C  19,H  26)    114.8379         0.012920   
    169. D(C  16,O  20,C  19,H  27)   -127.4069         0.012920   
    170. D(H  28,O  22,C  17,C  16)    -55.7737         0.007743   
    171. D(H  28,O  22,C  17,C  18)     55.8180         0.007743   
    172. D(H  28,O  22,C  17,H  23)    179.9555         0.007743   
    -----------------------------------------------------------------

Number of atoms                         .... 29
Number of degrees of freedom            .... 172

Time needed for optimization step       :    12.67 sec

         *************************************************************
         *                GEOMETRY OPTIMIZATION CYCLE   1            *
         *************************************************************
---------------------------------
CARTESIAN COORDINATES (ANGSTROEM)
---------------------------------
  C    -21.048007   26.221987   46.251052
  C    -20.360983   27.557965   45.943971
  C    -20.328897   28.222032   47.340943
  C    -20.109881   27.022059   48.295971
  O    -20.472948   25.807045   47.535041
  H    -20.833061   25.427976   45.533048
  H    -19.344008   27.381921   45.575924
  H    -20.898007   28.156952   45.200978
  H    -19.542874   28.978016   47.433873
  H    -21.288873   28.710067   47.547971
  H    -20.732833   27.082107   49.195001
  H    -19.063868   26.913043   48.596920
  C    -23.271014   25.476042   47.424075
  H    -22.873047   24.458034   47.329030
  H    -23.061997   25.831992   48.441090
  O    -22.585991   26.394082   46.375125
  C    -24.814008   25.415028   47.253025
  C    -25.466038   24.594981   48.370971
  C    -25.481092   25.611941   49.537004
  C    -25.731082   26.962964   48.822042
  O    -25.399028   26.752017   47.397046
  H    -25.048967   25.070064   46.244003
  O    -26.914019   24.200978   47.968906
  H    -24.914036   23.679979   48.612959
  H    -26.248117   25.387907   50.285968
  H    -24.509111   25.617936   50.045039
  H    -25.106106   27.769957   49.220093
  H    -26.780088   27.271950   48.867015
  H    -27.486020   25.101979   47.722916

----------------------------
CARTESIAN COORDINATES (A.U.)
----------------------------
  NO LB      ZA    FRAG     MASS         X           Y           Z
   0 C     6.0000    0    12.011  -39.774970   49.552374   87.401822
   1 C     6.0000    0    12.011  -38.476682   52.077006   86.821524
   2 C     6.0000    0    12.011  -38.416048   53.331911   89.461417
   3 C     6.0000    0    12.011  -38.002168   51.064292   91.266158
   4 O     8.0000    0    15.999  -38.688265   48.768248   89.828209
   5 H     1.0000    0     1.008  -39.368780   48.051911   86.044991
   6 H     1.0000    0     1.008  -36.554877   51.744331   86.126016
   7 H     1.0000    0     1.008  -39.491509   53.208928   85.417470
   8 H     1.0000    0     1.008  -36.930679   54.760514   89.637030
   9 H     1.0000    0     1.008  -40.230140   54.254163   89.852644
  10 H     1.0000    0     1.008  -39.179377   51.177765   92.965078
  11 H     1.0000    0     1.008  -36.025490   50.858282   91.834870
  12 C     6.0000    0    12.011  -43.975843   48.142743   89.618515
  13 H     1.0000    0     1.008  -43.223794   46.218986   89.438904
  14 H     1.0000    0     1.008  -43.580859   48.815390   91.540393
  15 O     8.0000    0    15.999  -42.681337   49.877586   87.636285
  16 C     6.0000    0    12.011  -46.891679   48.027442   89.295276
  17 C     6.0000    0    12.011  -48.123837   46.477778   91.407888
  18 C     6.0000    0    12.011  -48.152286   48.399555   93.611370
  19 C     6.0000    0    12.011  -48.624699   50.952618   92.260289
  20 O     8.0000    0    15.999  -47.997207   50.553986   89.567436
  21 H     1.0000    0     1.008  -47.335687   47.375554   87.388501
  22 O     8.0000    0    15.999  -50.860124   45.733220   90.648095
  23 H     1.0000    0     1.008  -47.080704   44.748675   91.865179
  24 H     1.0000    0     1.008  -49.601753   47.976191   95.026708
  25 H     1.0000    0     1.008  -46.315507   48.410883   94.571418
  26 H     1.0000    0     1.008  -47.443665   52.477614   93.012496
  27 H     1.0000    0     1.008  -50.607032   51.536518   92.345275
  28 H     1.0000    0     1.008  -51.941051   47.435866   90.183242

--------------------------------
INTERNAL COORDINATES (ANGSTROEM)
--------------------------------
 C      0   0   0     0.000000000000     0.00000000     0.00000000
 C      1   0   0     1.533334275362     0.00000000     0.00000000
 C      2   1   0     1.547103422529   101.67907390     0.00000000
 C      3   2   1     1.549188819996   103.12737509    35.02687180
 O      1   2   3     1.466801281701   104.24948604   319.98542309
 H      1   2   3     1.091872245274   114.43876658   203.42640133
 H      2   1   3     1.095759553917   110.06782188   117.34000099
 H      2   1   3     1.095088580892   113.12442239   238.72597460
 H      3   2   1     1.094523183857   112.83161078   156.54780790
 H      3   2   1     1.096628013503   110.07982737   276.98070077
 H      4   3   2     1.095413164062   112.52534669   222.25678475
 H      4   3   2     1.093891219455   112.45670684    98.86663270
 C      1   2   3     2.621864603674   135.83778408    53.11057246
 H     13   1   2     1.097156780046    85.27887601   187.97165445
 H     13   1   2     1.097590998505    99.25370154   295.65987087
 O      1   2   3     1.552547583812   111.30349807    79.08752829
 C     13   1   2     1.553644425214   143.51289017    73.21853316
 C     17  13   1     1.532131848112   111.30514357   171.17025276
 C     18  17  13     1.547278255518   101.66775472    79.09565546
 C     19  18  17     1.548846667685   103.12105909    35.03862982
 O     17  13   1     1.466468547225   110.46165978   286.50818148
 H     17  13   1     1.091939100866   109.13820100    43.92401253
 O     18  17  13     1.553558495841   110.09338173   196.41679080
 H     18  17  13     1.095670114587   113.18653426   317.84936305
 H     19  18  17     1.095201351351   112.81299742   156.54125677
 H     19  18  17     1.096760684926   110.12378728   276.97489067
 H     20  19  18     1.095571996721   112.50262422   222.29744051
 H     20  19  18     1.094489378660   112.45649017    98.89241222
 H     23  18  17     1.095217330031   109.64963834   304.22621241

---------------------------
INTERNAL COORDINATES (A.U.)
---------------------------
 C      0   0   0     0.000000000000     0.00000000     0.00000000
 C      1   0   0     2.897581852189     0.00000000     0.00000000
 C      2   1   0     2.923601769431   101.67907390     0.00000000
 C      3   2   1     2.927542599525   103.12737509    35.02687180
 O      1   2   3     2.771852715300   104.24948604   319.98542309
 H      1   2   3     2.063339516798   114.43876658   203.42640133
 H      2   1   3     2.070685465531   110.06782188   117.34000099
 H      2   1   3     2.069417510270   113.12442239   238.72597460
 H      3   2   1     2.068349064717   112.83161078   156.54780790
 H      3   2   1     2.072326616307   110.07982737   276.98070077
 H      4   3   2     2.070030883569   112.52534669   222.25678475
 H      4   3   2     2.067154825070   112.45670684    98.86663270
 C      1   2   3     4.954606061166   135.83778408    53.11057246
 H     13   1   2     2.073325840261    85.27887601   187.97165445
 H     13   1   2     2.074146394232    99.25370154   295.65987087
 O      1   2   3     2.933889743286   111.30349807    79.08752829
 C     13   1   2     2.935962473149   143.51289017    73.21853316
 C     17  13   1     2.895309593991   111.30514357   171.17025276
 C     18  17  13     2.923932155901   101.66775472    79.09565546
 C     19  18  17     2.926896025362   103.12105909    35.03862982
 O     17  13   1     2.771223938264   110.46165978   286.50818148
 H     17  13   1     2.063465855557   109.13820100    43.92401253
 O     18  17  13     2.935800090166   110.09338173   196.41679080
 H     18  17  13     2.070516449692   113.18653426   317.84936305
 H     19  18  17     2.069630615553   112.81299742   156.54125677
 H     19  18  17     2.072577328963   110.12378728   276.97489067
 H     20  19  18     2.070331033797   112.50262422   222.29744051
 H     20  19  18     2.068285182153   112.45649017    98.89241222
 H     23  18  17     2.069660810883   109.64963834   304.22621241

---------------------
BASIS SET INFORMATION
---------------------
There are 3 groups of distinct atoms

 Group   1 Type C   : 10s4p contracted to 3s2p pattern {631/31}
 Group   2 Type O   : 10s4p contracted to 3s2p pattern {631/31}
 Group   3 Type H   : 4s contracted to 2s pattern {31}

Atom   0C    basis set group =>   1
Atom   1C    basis set group =>   1
Atom   2C    basis set group =>   1
Atom   3C    basis set group =>   1
Atom   4O    basis set group =>   2
Atom   5H    basis set group =>   3
Atom   6H    basis set group =>   3
Atom   7H    basis set group =>   3
Atom   8H    basis set group =>   3
Atom   9H    basis set group =>   3
Atom  10H    basis set group =>   3
Atom  11H    basis set group =>   3
Atom  12C    basis set group =>   1
Atom  13H    basis set group =>   3
Atom  14H    basis set group =>   3
Atom  15O    basis set group =>   2
Atom  16C    basis set group =>   1
Atom  17C    basis set group =>   1
Atom  18C    basis set group =>   1
Atom  19C    basis set group =>   1
Atom  20O    basis set group =>   2
Atom  21H    basis set group =>   3
Atom  22O    basis set group =>   2
Atom  23H    basis set group =>   3
Atom  24H    basis set group =>   3
Atom  25H    basis set group =>   3
Atom  26H    basis set group =>   3
Atom  27H    basis set group =>   3
Atom  28H    basis set group =>   3
------------------------------------------------------------------------------
                           ORCA GTO INTEGRAL CALCULATION
------------------------------------------------------------------------------

                         BASIS SET STATISTICS AND STARTUP INFO

 # of primitive gaussian shells          ...  246
 # of primitive gaussian functions       ...  350
 # of contracted shells                  ...   97
 # of contracted basis functions         ...  149
 Highest angular momentum                ...    1
 Maximum contraction depth               ...    6
 Integral package used                   ... LIBINT
 Integral threshhold            Thresh   ...  2.500e-11
 Primitive cut-off              TCut     ...  2.500e-12


------------------------------ INTEGRAL EVALUATION ----------------------------


 * One electron integrals 
 Pre-screening matrix                    ... done
 Shell pair data                         ... done (   0.002 sec)

-------------------------------------------------------------------------------
                                 ORCA SCF
-------------------------------------------------------------------------------

------------
SCF SETTINGS
------------
Hamiltonian:
 Density Functional     Method          .... DFT(GTOs)
 Exchange Functional    Exchange        .... B88
   X-Alpha parameter    XAlpha          ....  0.666667
   Becke's b parameter  XBeta           ....  0.004200
 Correlation Functional Correlation     .... LYP
 LDA part of GGA corr.  LDAOpt          .... VWN-5
 Gradients option       PostSCFGGA      .... off
 Hybrid DFT is turned on
   Fraction HF Exchange ScalHFX         ....  0.200000
   Scaling of DF-GGA-X  ScalDFX         ....  0.720000
   Scaling of DF-GGA-C  ScalDFC         ....  0.810000
   Scaling of DF-LDA-C  ScalLDAC        ....  1.000000
   Perturbative correction              ....  0.000000
   Density functional embedding theory  .... OFF
   NL short-range parameter             ....  4.800000


General Settings:
 Integral files         IntName         .... project_8052/ensemble_330_195
 Hartree-Fock type      HFTyp           .... RHF
 Total Charge           Charge          ....    0
 Multiplicity           Mult            ....    1
 Number of Electrons    NEL             ....  102
 Basis Dimension        Dim             ....  149
 Nuclear Repulsion      ENuc            ....    857.5360831961 Eh

Convergence Acceleration:
 DIIS                   CNVDIIS         .... on
   Start iteration      DIISMaxIt       ....    12
   Startup error        DIISStart       ....  0.200000
   # of expansion vecs  DIISMaxEq       ....     5
   Bias factor          DIISBfac        ....   1.050
   Max. coefficient     DIISMaxC        ....  10.000
 Newton-Raphson         CNVNR           .... off
 SOSCF                  CNVSOSCF        .... on
   Start iteration      SOSCFMaxIt      ....   150
   Startup grad/error   SOSCFStart      ....  0.003300
 Level Shifting         CNVShift        .... on
   Level shift para.    LevelShift      ....    0.2500
   Turn off err/grad.   ShiftErr        ....    0.0010
 Zerner damping         CNVZerner       .... off
 Static damping         CNVDamp         .... on
   Fraction old density DampFac         ....    0.7000
   Max. Damping (<1)    DampMax         ....    0.9800
   Min. Damping (>=0)   DampMin         ....    0.0000
   Turn off err/grad.   DampErr         ....    0.1000
 Fernandez-Rico         CNVRico         .... off

SCF Procedure:
 Maximum # iterations   MaxIter         ....   125
 SCF integral mode      SCFMode         .... Direct
   Integral package                     .... LIBINT
 Reset frequency        DirectResetFreq ....    20
 Integral Threshold     Thresh          ....  2.500e-11 Eh
 Primitive CutOff       TCut            ....  2.500e-12 Eh

Convergence Tolerance:
 Convergence Check Mode ConvCheckMode   .... Total+1el-Energy
 Convergence forced     ConvForced      .... 0
 Energy Change          TolE            ....  1.000e-08 Eh
 1-El. energy change                    ....  1.000e-05 Eh
 Orbital Gradient       TolG            ....  1.000e-05
 Orbital Rotation angle TolX            ....  1.000e-05
 DIIS Error             TolErr          ....  5.000e-07


Diagonalization of the overlap matrix:
Smallest eigenvalue                        ... 4.084e-03
Time for diagonalization                   ...    0.007 sec
Threshold for overlap eigenvalues          ... 1.000e-08
Number of eigenvalues below threshold      ... 0
Time for construction of square roots      ...   14.428 sec
Total time needed                          ...   14.436 sec

-------------------
DFT GRID GENERATION
-------------------

General Integration Accuracy     IntAcc      ...  4.340
Radial Grid Type                 RadialGrid  ... Gauss-Chebyshev
Angular Grid (max. acc.)         AngularGrid ... Lebedev-110
Angular grid pruning method      GridPruning ... 3 (G Style)
Weight generation scheme         WeightScheme... Becke
Basis function cutoff            BFCut       ...    1.0000e-11
Integration weight cutoff        WCut        ...    1.0000e-14
Grids for H and He will be reduced by one unit

# of grid points (after initial pruning)     ...  34472 (   0.0 sec)
# of grid points (after weights+screening)   ...  31033 (   0.3 sec)
nearest neighbour list constructed           ...    0.0 sec
Grid point re-assignment to atoms done       ...    0.0 sec
Grid point division into batches done        ...    0.0 sec
Reduced shell lists constructed in    0.5 sec

Total number of grid points                  ...    31033
Total number of batches                      ...      498
Average number of points per batch           ...       62
Average number of grid points per atom       ...     1070
Average number of shells per batch           ...    57.85 (59.64%)
Average number of basis functions per batch  ...    93.84 (62.98%)
Average number of large shells per batch     ...    40.24 (69.56%)
Average number of large basis fcns per batch ...    66.43 (70.79%)
Maximum spatial batch extension              ...  19.44, 21.04, 19.34 au
Average spatial batch extension              ...   3.22,  3.51,  3.40 au

Time for grid setup =   12.127 sec

------------------------------
INITIAL GUESS: MODEL POTENTIAL
------------------------------
Loading Hartree-Fock densities                     ... done
Calculating cut-offs                               ... done
Setting up the integral package                    ... done
Initializing the effective Hamiltonian             ... done
Starting the Coulomb interaction                   ... done (   0.3 sec)
Reading the grid                                   ... done
Mapping shells                                     ... done
Starting the XC term evaluation                    ... done (   0.3 sec)
  promolecular density results
     # of electrons  =    101.985951872
     EX              =    -83.659861680
     EC              =     -3.455911769
     EX+EC           =    -87.115773449
Transforming the Hamiltonian                       ... done (   1.9 sec)
Diagonalizing the Hamiltonian                      ... done (   0.0 sec)
Back transforming the eigenvectors                 ... done (   0.0 sec)
Now organizing SCF variables                       ... done
                      ------------------
                      INITIAL GUESS DONE (  17.7 sec)
                      ------------------
--------------
SCF ITERATIONS
--------------
ITER       Energy         Delta-E        Max-DP      RMS-DP      [F,P]     Damp
               ***  Starting incremental Fock matrix formation  ***
  0   -652.5329588311   0.000000000000 0.07918303  0.00307361  0.2420036 0.7000
  1   -652.6747003533  -0.141741522232 0.04638757  0.00209707  0.0972094 0.7000
                               ***Turning on DIIS***
  2   -652.7275872985  -0.052886945152 0.05548104  0.00333603  0.0324711 0.0000
  3   -652.8151162078  -0.087528909342 0.03165085  0.00138707  0.0520784 0.0000
  4   -652.8326134972  -0.017497289395 0.00812648  0.00043020  0.0115424 0.0000
  5   -652.8336228239  -0.001009326649 0.00256686  0.00013205  0.0037753 0.0000
                      *** Initiating the SOSCF procedure ***
                           *** Shutting down DIIS ***
                      *** Re-Reading the Fockian *** 
                      *** Removing any level shift *** 
ITER      Energy       Delta-E        Grad      Rot      Max-DP    RMS-DP
  6   -652.83369280  -0.0000699770  0.000217  0.000217  0.000953  0.000055
               *** Restarting incremental Fock matrix formation ***
  7   -652.83369559  -0.0000027898  0.000144  0.000347  0.001150  0.000035
  8   -652.83369268   0.0000029149  0.000270  0.000240  0.000777  0.000023
  9   -652.83369709  -0.0000044144  0.000024  0.000045  0.000228  0.000006
 10   -652.83369703   0.0000000618  0.000040  0.000025  0.000133  0.000004
 11   -652.83369715  -0.0000001196  0.000006  0.000007  0.000037  0.000001
 12   -652.83369715   0.0000000021  0.000009  0.000004  0.000021  0.000001
                  ***Gradient check signals convergence***
              ***Rediagonalizing the Fockian in SOSCF/NRSCF***

               *****************************************************
               *                     SUCCESS                       *
               *           SCF CONVERGED AFTER  13 CYCLES          *
               *****************************************************

Setting up the final grid:

General Integration Accuracy     IntAcc      ...  4.670
Radial Grid Type                 RadialGrid  ... Gauss-Chebyshev
Angular Grid (max. acc.)         AngularGrid ... Lebedev-302
Angular grid pruning method      GridPruning ... 3 (G Style)
Weight generation scheme         WeightScheme... Becke
Basis function cutoff            BFCut       ...    1.0000e-11
Integration weight cutoff        WCut        ...    1.0000e-14
Grids for H and He will be reduced by one unit

# of grid points (after initial pruning)     ... 135060 (   0.1 sec)
# of grid points (after weights+screening)   ... 119117 (   0.9 sec)
nearest neighbour list constructed           ...    0.0 sec
Grid point re-assignment to atoms done       ...    0.0 sec
Grid point division into batches done        ...    0.4 sec
Reduced shell lists constructed in    1.4 sec

Total number of grid points                  ...   119117
Total number of batches                      ...     1876
Average number of points per batch           ...       63
Average number of grid points per atom       ...     4107
Average number of shells per batch           ...    52.68 (54.31%)
Average number of basis functions per batch  ...    85.79 (57.58%)
Average number of large shells per batch     ...    35.98 (68.30%)
Average number of large basis fcns per batch ...    59.63 (69.50%)
Maximum spatial batch extension              ...  19.26, 19.79, 18.94 au
Average spatial batch extension              ...   2.13,  2.26,  2.24 au

Final grid set up in    9.6 sec
Final integration                            ... done (  27.8 sec)
Change in XC energy                          ...    -0.000571176
Integrated number of electrons               ...   102.000149220
Previous integrated no of electrons          ...   101.997561305

----------------
TOTAL SCF ENERGY
----------------

Total Energy       :         -652.83426833 Eh          -17764.52357 eV

Components:
Nuclear Repulsion  :          857.53608320 Eh           23334.74314 eV
Electronic Energy  :        -1510.37035152 Eh          -41099.26671 eV
One Electron Energy:        -2593.02648690 Eh          -70559.83790 eV
Two Electron Energy:         1082.65613538 Eh           29460.57119 eV

Virial components:
Potential Energy   :        -1301.74382035 Eh          -35422.25018 eV
Kinetic Energy     :          648.90955202 Eh           17657.72661 eV
Virial Ratio       :            2.00604817


DFT components:
N(Alpha)           :       51.000074609779 electrons
N(Beta)            :       51.000074609779 electrons
N(Total)           :      102.000149219558 electrons
E(X)               :      -67.587984371475 Eh       
E(C)               :       -4.068191739246 Eh       
E(XC)              :      -71.656176110721 Eh       
DFET-embed. en.    :        0.000000000000 Eh       

---------------
SCF CONVERGENCE
---------------

  Last Energy change         ...   -3.8850e-09  Tolerance :   1.0000e-08
  Last MAX-Density change    ...    2.7423e-06  Tolerance :   1.0000e-07
  Last RMS-Density change    ...    1.1444e-07  Tolerance :   5.0000e-09
  Last Orbital Gradient      ...    3.5431e-07  Tolerance :   1.0000e-05
  Last Orbital Rotation      ...    6.9153e-07  Tolerance :   1.0000e-05

             **** THE GBW FILE WAS UPDATED (project_8052/ensemble_330_195.gbw) ****
             **** DENSITY FILE WAS UPDATED (project_8052/ensemble_330_195.scfp) ****
             **** ENERGY FILE WAS UPDATED (project_8052/ensemble_330_195.en.tmp) ****
             **** THE GBW FILE WAS UPDATED (project_8052/ensemble_330_195.gbw) ****
             **** DENSITY FILE WAS UPDATED (project_8052/ensemble_330_195.scfp) ****
----------------
ORBITAL ENERGIES
----------------

  NO   OCC          E(Eh)            E(eV) 
   0   2.0000     -19.150039      -521.0991 
   1   2.0000     -19.145919      -520.9870 
   2   2.0000     -19.137341      -520.7535 
   3   2.0000     -19.135968      -520.7161 
   4   2.0000     -10.282393      -279.7981 
   5   2.0000     -10.249343      -278.8988 
   6   2.0000     -10.235887      -278.5326 
   7   2.0000     -10.230662      -278.3905 
   8   2.0000     -10.230217      -278.3784 
   9   2.0000     -10.229618      -278.3620 
  10   2.0000     -10.194780      -277.4141 
  11   2.0000     -10.190813      -277.3061 
  12   2.0000     -10.188256      -277.2365 
  13   2.0000      -1.037175       -28.2230 
  14   2.0000      -1.025837       -27.9144 
  15   2.0000      -0.964502       -26.2454 
  16   2.0000      -0.952940       -25.9308 
  17   2.0000      -0.790295       -21.5050 
  18   2.0000      -0.785051       -21.3623 
  19   2.0000      -0.762899       -20.7595 
  20   2.0000      -0.732036       -19.9197 
  21   2.0000      -0.666367       -18.1328 
  22   2.0000      -0.601648       -16.3717 
  23   2.0000      -0.599584       -16.3155 
  24   2.0000      -0.585936       -15.9441 
  25   2.0000      -0.576293       -15.6817 
  26   2.0000      -0.513722       -13.9791 
  27   2.0000      -0.502998       -13.6873 
  28   2.0000      -0.489926       -13.3316 
  29   2.0000      -0.489420       -13.3178 
  30   2.0000      -0.464601       -12.6424 
  31   2.0000      -0.445972       -12.1355 
  32   2.0000      -0.443035       -12.0556 
  33   2.0000      -0.434162       -11.8141 
  34   2.0000      -0.413734       -11.2583 
  35   2.0000      -0.405731       -11.0405 
  36   2.0000      -0.402355       -10.9486 
  37   2.0000      -0.388299       -10.5662 
  38   2.0000      -0.373454       -10.1622 
  39   2.0000      -0.368345       -10.0232 
  40   2.0000      -0.360730        -9.8160 
  41   2.0000      -0.358555        -9.7568 
  42   2.0000      -0.349109        -9.4997 
  43   2.0000      -0.332583        -9.0500 
  44   2.0000      -0.318711        -8.6726 
  45   2.0000      -0.307755        -8.3744 
  46   2.0000      -0.300560        -8.1787 
  47   2.0000      -0.266604        -7.2547 
  48   2.0000      -0.257418        -7.0047 
  49   2.0000      -0.249870        -6.7993 
  50   2.0000      -0.240024        -6.5314 
  51   0.0000       0.035823         0.9748 
  52   0.0000       0.064824         1.7640 
  53   0.0000       0.070037         1.9058 
  54   0.0000       0.093503         2.5443 
  55   0.0000       0.094763         2.5786 
  56   0.0000       0.109360         2.9758 
  57   0.0000       0.112523         3.0619 
  58   0.0000       0.123990         3.3739 
  59   0.0000       0.135911         3.6983 
  60   0.0000       0.140638         3.8270 
  61   0.0000       0.146446         3.9850 
  62   0.0000       0.149714         4.0739 
  63   0.0000       0.151713         4.1283 
  64   0.0000       0.155452         4.2301 
  65   0.0000       0.160848         4.3769 
  66   0.0000       0.172598         4.6966 
  67   0.0000       0.176246         4.7959 
  68   0.0000       0.184174         5.0116 
  69   0.0000       0.191798         5.2191 
  70   0.0000       0.201907         5.4942 
  71   0.0000       0.205687         5.5970 
  72   0.0000       0.218892         5.9564 
  73   0.0000       0.224315         6.1039 
  74   0.0000       0.232405         6.3241 
  75   0.0000       0.250028         6.8036 
  76   0.0000       0.262804         7.1513 
  77   0.0000       0.273614         7.4454 
  78   0.0000       0.279827         7.6145 
  79   0.0000       0.287399         7.8205 
  80   0.0000       0.297046         8.0830 
  81   0.0000       0.527916        14.3653 
  82   0.0000       0.536196        14.5906 
  83   0.0000       0.545266        14.8375 
  84   0.0000       0.548419        14.9233 
  85   0.0000       0.558625        15.2010 
  86   0.0000       0.564691        15.3660 
  87   0.0000       0.573263        15.5993 
  88   0.0000       0.580369        15.7927 
  89   0.0000       0.585657        15.9365 
  90   0.0000       0.595173        16.1955 
  91   0.0000       0.608176        16.5493 
  92   0.0000       0.617502        16.8031 
  93   0.0000       0.628531        17.1032 
  94   0.0000       0.635876        17.3031 
  95   0.0000       0.643342        17.5062 
  96   0.0000       0.655103        17.8263 
  97   0.0000       0.661895        18.0111 
  98   0.0000       0.680847        18.5268 
  99   0.0000       0.700984        19.0747 
 100   0.0000       0.716828        19.5059 
 101   0.0000       0.750108        20.4115 
 102   0.0000       0.789822        21.4922 
 103   0.0000       0.803448        21.8629 
 104   0.0000       0.811137        22.0722 
 105   0.0000       0.821675        22.3589 
 106   0.0000       0.834244        22.7009 
 107   0.0000       0.852609        23.2007 
 108   0.0000       0.863084        23.4857 
 109   0.0000       0.874197        23.7881 
 110   0.0000       0.876608        23.8537 
 111   0.0000       0.884022        24.0555 
 112   0.0000       0.905010        24.6266 
 113   0.0000       0.907413        24.6920 
 114   0.0000       0.919508        25.0211 
 115   0.0000       0.922198        25.0943 
 116   0.0000       0.933319        25.3969 
 117   0.0000       0.942136        25.6368 
 118   0.0000       0.951836        25.9008 
 119   0.0000       0.966424        26.2977 
 120   0.0000       0.977864        26.6090 
 121   0.0000       0.981201        26.6998 
 122   0.0000       0.992334        27.0028 
 123   0.0000       1.023051        27.8386 
 124   0.0000       1.048486        28.5308 
 125   0.0000       1.053074        28.6556 
 126   0.0000       1.076173        29.2842 
 127   0.0000       1.092954        29.7408 
 128   0.0000       1.108929        30.1755 
 129   0.0000       1.142957        31.1014 
 130   0.0000       1.152874        31.3713 
 131   0.0000       1.228255        33.4225 
 132   0.0000       1.279144        34.8073 
 133   0.0000       1.315639        35.8004 
 134   0.0000       1.330991        36.2181 
 135   0.0000       1.344909        36.5968 
 136   0.0000       1.379488        37.5378 
 137   0.0000       1.392942        37.9039 
 138   0.0000       1.413838        38.4725 
 139   0.0000       1.454395        39.5761 
 140   0.0000       1.497151        40.7396 
 141   0.0000       1.546195        42.0741 
 142   0.0000       1.620017        44.0829 
 143   0.0000       1.650953        44.9247 
 144   0.0000       1.694315        46.1047 
 145   0.0000       1.849664        50.3319 
 146   0.0000       1.921159        52.2774 
 147   0.0000       2.059641        56.0457 
 148   0.0000       2.107205        57.3400 

                    ********************************
                    * MULLIKEN POPULATION ANALYSIS *
                    ********************************

-----------------------
MULLIKEN ATOMIC CHARGES
-----------------------
   0 C :    0.290864
   1 C :   -0.269792
   2 C :   -0.299676
   3 C :   -0.006802
   4 O :   -0.515897
   5 H :    0.153446
   6 H :    0.149956
   7 H :    0.167029
   8 H :    0.141936
   9 H :    0.166374
  10 H :    0.140052
  11 H :    0.144687
  12 C :    0.011684
  13 H :    0.137215
  14 H :    0.128675
  15 O :   -0.522866
  16 C :    0.063671
  17 C :    0.072595
  18 C :   -0.308391
  19 C :   -0.024941
  20 O :   -0.506409
  21 H :    0.171412
  22 O :   -0.594797
  23 H :    0.157213
  24 H :    0.164475
  25 H :    0.147266
  26 H :    0.147772
  27 H :    0.140870
  28 H :    0.352379
Sum of atomic charges:   -0.0000000

--------------------------------
MULLIKEN REDUCED ORBITAL CHARGES
--------------------------------
  0 C s       :     3.230197  s :     3.230197
      pz      :     0.786648  p :     2.478940
      px      :     0.691417
      py      :     1.000874
  1 C s       :     3.310029  s :     3.310029
      pz      :     0.986860  p :     2.959763
      px      :     1.028231
      py      :     0.944672
  2 C s       :     3.315539  s :     3.315539
      pz      :     0.908267  p :     2.984137
      px      :     1.088870
      py      :     0.987000
  3 C s       :     3.261421  s :     3.261421
      pz      :     0.937383  p :     2.745381
      px      :     1.059818
      py      :     0.748180
  4 O s       :     3.942134  s :     3.942134
      pz      :     1.317244  p :     4.573763
      px      :     1.735388
      py      :     1.521130
  5 H s       :     0.846554  s :     0.846554
  6 H s       :     0.850044  s :     0.850044
  7 H s       :     0.832971  s :     0.832971
  8 H s       :     0.858064  s :     0.858064
  9 H s       :     0.833626  s :     0.833626
 10 H s       :     0.859948  s :     0.859948
 11 H s       :     0.855313  s :     0.855313
 12 C s       :     3.276531  s :     3.276531
      pz      :     0.895129  p :     2.711785
      px      :     0.884745
      py      :     0.931911
 13 H s       :     0.862785  s :     0.862785
 14 H s       :     0.871325  s :     0.871325
 15 O s       :     3.958143  s :     3.958143
      pz      :     1.622620  p :     4.564723
      px      :     1.265199
      py      :     1.676903
 16 C s       :     3.286403  s :     3.286403
      pz      :     1.043233  p :     2.649926
      px      :     0.883732
      py      :     0.722961
 17 C s       :     3.300482  s :     3.300482
      pz      :     0.900996  p :     2.626923
      px      :     0.737912
      py      :     0.988016
 18 C s       :     3.318663  s :     3.318663
      pz      :     0.984576  p :     2.989728
      px      :     1.088568
      py      :     0.916584
 19 C s       :     3.265813  s :     3.265813
      pz      :     0.697636  p :     2.759128
      px      :     1.068222
      py      :     0.993269
 20 O s       :     3.945518  s :     3.945518
      pz      :     1.370944  p :     4.560891
      px      :     1.761504
      py      :     1.428443
 21 H s       :     0.828588  s :     0.828588
 22 O s       :     3.952002  s :     3.952002
      pz      :     1.871025  p :     4.642794
      px      :     1.281363
      py      :     1.490406
 23 H s       :     0.842787  s :     0.842787
 24 H s       :     0.835525  s :     0.835525
 25 H s       :     0.852734  s :     0.852734
 26 H s       :     0.852228  s :     0.852228
 27 H s       :     0.859130  s :     0.859130
 28 H s       :     0.647621  s :     0.647621


                     *******************************
                     * LOEWDIN POPULATION ANALYSIS *
                     *******************************

----------------------
LOEWDIN ATOMIC CHARGES
----------------------
   0 C :    0.188955
   1 C :   -0.215484
   2 C :   -0.217370
   3 C :   -0.030974
   4 O :   -0.322792
   5 H :    0.104793
   6 H :    0.117504
   7 H :    0.130000
   8 H :    0.113873
   9 H :    0.120941
  10 H :    0.100273
  11 H :    0.103247
  12 C :   -0.037548
  13 H :    0.104657
  14 H :    0.097054
  15 O :   -0.365632
  16 C :    0.024260
  17 C :    0.043607
  18 C :   -0.239274
  19 C :   -0.038946
  20 O :   -0.320250
  21 H :    0.125259
  22 O :   -0.440082
  23 H :    0.121548
  24 H :    0.127088
  25 H :    0.113147
  26 H :    0.104526
  27 H :    0.099572
  28 H :    0.288049

-------------------------------
LOEWDIN REDUCED ORBITAL CHARGES
-------------------------------
  0 C s       :     2.981494  s :     2.981494
      pz      :     0.911733  p :     2.829551
      px      :     0.831967
      py      :     1.085851
  1 C s       :     2.976967  s :     2.976967
      pz      :     1.078370  p :     3.238517
      px      :     1.104918
      py      :     1.055228
  2 C s       :     2.972985  s :     2.972985
      pz      :     1.031818  p :     3.244386
      px      :     1.134542
      py      :     1.078026
  3 C s       :     2.984101  s :     2.984101
      pz      :     1.037153  p :     3.046873
      px      :     1.119969
      py      :     0.889751
  4 O s       :     3.607923  s :     3.607923
      pz      :     1.381596  p :     4.714869
      px      :     1.766573
      py      :     1.566700
  5 H s       :     0.895207  s :     0.895207
  6 H s       :     0.882496  s :     0.882496
  7 H s       :     0.870000  s :     0.870000
  8 H s       :     0.886127  s :     0.886127
  9 H s       :     0.879059  s :     0.879059
 10 H s       :     0.899727  s :     0.899727
 11 H s       :     0.896753  s :     0.896753
 12 C s       :     3.001239  s :     3.001239
      pz      :     0.988417  p :     3.036309
      px      :     1.025249
      py      :     1.022643
 13 H s       :     0.895343  s :     0.895343
 14 H s       :     0.902946  s :     0.902946
 15 O s       :     3.657734  s :     3.657734
      pz      :     1.661641  p :     4.707897
      px      :     1.331588
      py      :     1.714668
 16 C s       :     2.968374  s :     2.968374
      pz      :     1.110400  p :     3.007366
      px      :     1.027234
      py      :     0.869732
 17 C s       :     2.974425  s :     2.974425
      pz      :     1.036415  p :     2.981969
      px      :     0.862274
      py      :     1.083279
 18 C s       :     2.983083  s :     2.983083
      pz      :     1.081996  p :     3.256191
      px      :     1.131212
      py      :     1.042984
 19 C s       :     2.983006  s :     2.983006
      pz      :     0.842268  p :     3.055940
      px      :     1.125066
      py      :     1.088606
 20 O s       :     3.604048  s :     3.604048
      pz      :     1.435803  p :     4.716202
      px      :     1.792771
      py      :     1.487628
 21 H s       :     0.874741  s :     0.874741
 22 O s       :     3.693853  s :     3.693853
      pz      :     1.882372  p :     4.746229
      px      :     1.338555
      py      :     1.525302
 23 H s       :     0.878452  s :     0.878452
 24 H s       :     0.872912  s :     0.872912
 25 H s       :     0.886853  s :     0.886853
 26 H s       :     0.895474  s :     0.895474
 27 H s       :     0.900428  s :     0.900428
 28 H s       :     0.711951  s :     0.711951


                      *****************************
                      * MAYER POPULATION ANALYSIS *
                      *****************************

  NA   - Mulliken gross atomic population
  ZA   - Total nuclear charge
  QA   - Mulliken gross atomic charge
  VA   - Mayer's total valence
  BVA  - Mayer's bonded valence
  FA   - Mayer's free valence

  ATOM       NA         ZA         QA         VA         BVA        FA
  0 C      5.7091     6.0000     0.2909     3.6450     3.6450    -0.0000
  1 C      6.2698     6.0000    -0.2698     3.7280     3.7280     0.0000
  2 C      6.2997     6.0000    -0.2997     3.7631     3.7631    -0.0000
  3 C      6.0068     6.0000    -0.0068     3.6599     3.6599    -0.0000
  4 O      8.5159     8.0000    -0.5159     1.7928     1.7928    -0.0000
  5 H      0.8466     1.0000     0.1534     0.9249     0.9249    -0.0000
  6 H      0.8500     1.0000     0.1500     0.9310     0.9310    -0.0000
  7 H      0.8330     1.0000     0.1670     0.9356     0.9356    -0.0000
  8 H      0.8581     1.0000     0.1419     0.9364     0.9364    -0.0000
  9 H      0.8336     1.0000     0.1664     0.9335     0.9335    -0.0000
 10 H      0.8599     1.0000     0.1401     0.9278     0.9278    -0.0000
 11 H      0.8553     1.0000     0.1447     0.9285     0.9285    -0.0000
 12 C      5.9883     6.0000     0.0117     3.6352     3.6352    -0.0000
 13 H      0.8628     1.0000     0.1372     0.9297     0.9297    -0.0000
 14 H      0.8713     1.0000     0.1287     0.9362     0.9362     0.0000
 15 O      8.5229     8.0000    -0.5229     1.7720     1.7720     0.0000
 16 C      5.9363     6.0000     0.0637     3.5919     3.5919    -0.0000
 17 C      5.9274     6.0000     0.0726     3.6350     3.6350    -0.0000
 18 C      6.3084     6.0000    -0.3084     3.7008     3.7008    -0.0000
 19 C      6.0249     6.0000    -0.0249     3.6705     3.6705     0.0000
 20 O      8.5064     8.0000    -0.5064     1.7760     1.7760    -0.0000
 21 H      0.8286     1.0000     0.1714     0.9353     0.9353     0.0000
 22 O      8.5948     8.0000    -0.5948     1.7612     1.7612    -0.0000
 23 H      0.8428     1.0000     0.1572     0.9380     0.9380    -0.0000
 24 H      0.8355     1.0000     0.1645     0.9388     0.9388     0.0000
 25 H      0.8527     1.0000     0.1473     0.9352     0.9352     0.0000
 26 H      0.8522     1.0000     0.1478     0.9265     0.9265    -0.0000
 27 H      0.8591     1.0000     0.1409     0.9299     0.9299     0.0000
 28 H      0.6476     1.0000     0.3524     0.8467     0.8467    -0.0000

  Mayer bond orders larger than 0.100000
B(  0-C ,  1-C ) :   0.9436 B(  0-C ,  4-O ) :   0.8877 B(  0-C ,  5-H ) :   0.9207 
B(  0-C , 15-O ) :   0.8521 B(  1-C ,  2-C ) :   0.9556 B(  1-C ,  6-H ) :   0.9339 
B(  1-C ,  7-H ) :   0.9330 B(  2-C ,  3-C ) :   0.9543 B(  2-C ,  8-H ) :   0.9445 
B(  2-C ,  9-H ) :   0.9435 B(  3-C ,  4-O ) :   0.8371 B(  3-C , 10-H ) :   0.9340 
B(  3-C , 11-H ) :   0.9397 B( 12-C , 13-H ) :   0.9138 B( 12-C , 14-H ) :   0.9166 
B( 12-C , 15-O ) :   0.8517 B( 12-C , 16-C ) :   0.8914 B( 16-C , 17-C ) :   0.8914 
B( 16-C , 20-O ) :   0.8610 B( 16-C , 21-H ) :   0.9254 B( 17-C , 18-C ) :   0.9172 
B( 17-C , 22-O ) :   0.8887 B( 17-C , 23-H ) :   0.9304 B( 18-C , 19-C ) :   0.9370 
B( 18-C , 24-H ) :   0.9368 B( 18-C , 25-H ) :   0.9287 B( 19-C , 20-O ) :   0.8585 
B( 19-C , 26-H ) :   0.9332 B( 19-C , 27-H ) :   0.9377 B( 22-O , 28-H ) :   0.8069 


-------
TIMINGS
-------

Total SCF time: 0 days 0 hours 21 min 20 sec 

Total time                  ....    1280.420 sec
Sum of individual times     ....    1041.647 sec  ( 81.4%)

Fock matrix formation       ....     926.863 sec  ( 72.4%)
  XC integration            ....     272.280 sec  ( 29.4% of F)
    Basis function eval.    ....       3.010 sec  (  1.1% of XC)
    Density eval.           ....       4.059 sec  (  1.5% of XC)
    XC-Functional eval.     ....       4.090 sec  (  1.5% of XC)
    XC-Potential eval.      ....       1.199 sec  (  0.4% of XC)
Diagonalization             ....      37.873 sec  (  3.0%)
Density matrix formation    ....       0.013 sec  (  0.0%)
Population analysis         ....      17.663 sec  (  1.4%)
Initial guess               ....       5.616 sec  (  0.4%)
Orbital Transformation      ....       0.000 sec  (  0.0%)
Orbital Orthonormalization  ....       0.000 sec  (  0.0%)
DIIS solution               ....      29.339 sec  (  2.3%)
SOSCF solution              ....       2.533 sec  (  0.2%)
Grid generation             ....      21.747 sec  (  1.7%)

-------------------------   --------------------
FINAL SINGLE POINT ENERGY      -652.834268325545
-------------------------   --------------------

------------------------------------------------------------------------------
                         ORCA SCF GRADIENT CALCULATION
------------------------------------------------------------------------------

Gradient of the Kohn-Sham DFT energy:
Kohn-Sham wavefunction type      ... RKS
Hartree-Fock exchange scaling    ...    0.200
Number of operators              ...    1
Number of atoms                  ...   29
Basis set dimensions             ...  149
Integral neglect threshold       ... 2.5e-11
Integral primitive cutoff        ... 2.5e-12

Nuclear repulsion gradient       ... done
One Electron Gradient            ... done
Pre-screening matrix             ... done
Starting the two electron gradient:
Two electron gradient done
Exchange-correlation gradient    ... done

------------------
CARTESIAN GRADIENT
------------------

   1   C   :    0.019386363    0.009336424   -0.016934017
   2   C   :    0.015189543   -0.004110818   -0.003714449
   3   C   :    0.000282542   -0.000696042   -0.002011425
   4   C   :   -0.001301616   -0.005261584   -0.002496714
   5   O   :    0.005946100   -0.004406383    0.013146540
   6   H   :    0.004445351    0.002364196   -0.001696622
   7   H   :    0.000824763    0.003784108    0.000279639
   8   H   :    0.000623743    0.001977624   -0.001312084
   9   H   :   -0.000840225    0.000787680    0.000118672
  10   H   :   -0.000687415    0.001799603    0.001405794
  11   H   :   -0.000316092    0.000830769    0.000767943
  12   H   :   -0.000232634    0.000965980    0.000316438
  13   C   :   -0.010766112   -0.007709151    0.015031520
  14   H   :   -0.002745575   -0.001159177    0.001178732
  15   H   :   -0.006774854   -0.003066428    0.005594748
  16   O   :   -0.010924613    0.015021195   -0.017500269
  17   C   :   -0.020618783   -0.010310499    0.014595703
  18   C   :    0.028904001   -0.006671583    0.004863524
  19   C   :    0.004588397   -0.000842228    0.000498271
  20   C   :   -0.001453032   -0.001590939   -0.001699027
  21   O   :    0.004488612    0.001025291   -0.001868487
  22   H   :    0.003660497    0.001097013   -0.001533153
  23   O   :   -0.000980205   -0.051692942    0.002967751
  24   H   :    0.011333959    0.002717142    0.003198482
  25   H   :   -0.000617997    0.002318303    0.002437532
  26   H   :    0.000665838    0.001294627   -0.000192956
  27   H   :    0.001231374    0.000281092    0.000197000
  28   H   :    0.000010329   -0.000754595   -0.000655040
  29   H   :   -0.043322260    0.052671321   -0.014984044

Difference to translation invariance:
           :    0.0000000000   -0.0000000000    0.0000000000

Norm of the cartesian gradient     ...    0.1092089366
RMS gradient                       ...    0.0117084270
MAX gradient                       ...    0.0526713213

-------
TIMINGS
-------

Total SCF gradient time            ...       39.837 sec

One electron gradient       ....       0.298 sec  (  0.7%)
Prescreening matrices       ....       0.048 sec  (  0.1%)
Two electron gradient       ....      13.156 sec  ( 33.0%)
XC gradient                 ....       8.446 sec  ( 21.2%)
------------------------------------------------------------------------------
                         ORCA GEOMETRY RELAXATION STEP
------------------------------------------------------------------------------

Reading the OPT-File                    .... done
Getting information on internals        .... done
Copying old internal coords+grads       .... done
Making the new internal coordinates     .... (new redundants).... done
Validating the new internal coordinates .... (new redundants).... done
Calculating the B-matrix                .... done
Calculating the G,G- and P matrices     .... done
Transforming gradient to internals      .... done
Projecting the internal gradient        .... done
Number of atoms                         ....  29
Number of internal coordinates          .... 172
Current Energy                          ....  -652.834268326 Eh
Current gradient norm                   ....     0.109208937 Eh/bohr
Maximum allowed component of the step   ....  0.300
Current trust radius                    ....  0.300
Evaluating the initial hessian          ....  (Almloef) done
Projecting the Hessian                  .... done
Forming the augmented Hessian           .... done
Diagonalizing the augmented Hessian     .... done
Last element of RFO vector              ....  0.942145993
Lowest eigenvalues of augmented Hessian:
 -0.039246181  0.007861747  0.033031925  0.033074573  0.036604363
Length of the computed step             ....  0.355786491
Warning: the length of the step is outside the trust region - taking restricted step instead
The input lambda is                     ....    -0.039246
   iter:   1  x=   -0.075181  g=    1.018074 f(x)=     0.036584
   iter:   2  x=   -0.089459  g=    0.608240 f(x)=     0.008685
   iter:   3  x=   -0.090673  g=    0.523039 f(x)=     0.000635
   iter:   4  x=   -0.090680  g=    0.516747 f(x)=     0.000004
   iter:   5  x=   -0.090680  g=    0.516709 f(x)=     0.000000
   iter:   6  x=   -0.090680  g=    0.516709 f(x)=     0.000000
The output lambda is                    ....    -0.090680 (6 iterations)
The final length of the internal step   ....  0.300000000
Converting the step to cartesian space:
 Initial RMS(Int)=    0.0228747855
Transforming coordinates:
 Iter   0:  RMS(Cart)=    0.0980041490 RMS(Int)=    0.4781889853
 Iter   1:  RMS(Cart)=    0.0018986074 RMS(Int)=    0.0007295256
 Iter   2:  RMS(Cart)=    0.0001052642 RMS(Int)=    0.0000637115
 Iter   3:  RMS(Cart)=    0.0000056689 RMS(Int)=    0.0000038797
 Iter   4:  RMS(Cart)=    0.0000004299 RMS(Int)=    0.0000002147
 Iter   5:  RMS(Cart)=    0.0000000413 RMS(Int)=    0.0000000186
Imposing constraints:
 Iter   0:  RMS(Cart)=    0.0000609394 RMS(Int)=    0.0000467709
 Iter   1:  RMS(Cart)=    0.0000321108 RMS(Int)=    0.0000310201
 Iter   2:  RMS(Cart)=    0.0000188825 RMS(Int)=    0.0000220163
 Iter   3:  RMS(Cart)=    0.0000123697 RMS(Int)=    0.0000167099
 Iter   4:  RMS(Cart)=    0.0000086733 RMS(Int)=    0.0000135536
 Iter   5:  RMS(Cart)=    0.0000062749 RMS(Int)=    0.0000116706
 Iter   6:  RMS(Cart)=    0.0000046067 RMS(Int)=    0.0000105262
 Iter   7:  RMS(Cart)=    0.0000034261 RMS(Int)=    0.0000097949
 Iter   8:  RMS(Cart)=    0.0000025990 RMS(Int)=    0.0000092883
[...]
  29   2.0000      -0.491054       -13.3623 
  30   2.0000      -0.475499       -12.9390 
  31   2.0000      -0.459221       -12.4960 
  32   2.0000      -0.451074       -12.2743 
  33   2.0000      -0.440692       -11.9918 
  34   2.0000      -0.414599       -11.2818 
  35   2.0000      -0.410213       -11.1625 
  36   2.0000      -0.403046       -10.9674 
  37   2.0000      -0.392790       -10.6884 
  38   2.0000      -0.371849       -10.1185 
  39   2.0000      -0.368156       -10.0180 
  40   2.0000      -0.360841        -9.8190 
  41   2.0000      -0.357558        -9.7296 
  42   2.0000      -0.348132        -9.4731 
  43   2.0000      -0.339908        -9.2494 
  44   2.0000      -0.323722        -8.8089 
  45   2.0000      -0.306471        -8.3395 
  46   2.0000      -0.300492        -8.1768 
  47   2.0000      -0.270195        -7.3524 
  48   2.0000      -0.260911        -7.0997 
  49   2.0000      -0.254808        -6.9337 
  50   2.0000      -0.241729        -6.5778 
  51   0.0000       0.064010         1.7418 
  52   0.0000       0.079274         2.1572 
  53   0.0000       0.092919         2.5284 
  54   0.0000       0.101617         2.7651 
  55   0.0000       0.102623         2.7925 
  56   0.0000       0.113925         3.1001 
  57   0.0000       0.115074         3.1313 
  58   0.0000       0.132833         3.6146 
  59   0.0000       0.136185         3.7058 
  60   0.0000       0.144729         3.9383 
  61   0.0000       0.147891         4.0243 
  62   0.0000       0.153162         4.1677 
  63   0.0000       0.158180         4.3043 
  64   0.0000       0.164375         4.4729 
  65   0.0000       0.166467         4.5298 
  66   0.0000       0.182429         4.9641 
  67   0.0000       0.183725         4.9994 
  68   0.0000       0.191183         5.2024 
  69   0.0000       0.204079         5.5533 
  70   0.0000       0.216116         5.8808 
  71   0.0000       0.222002         6.0410 
  72   0.0000       0.224856         6.1186 
  73   0.0000       0.233577         6.3560 
  74   0.0000       0.243258         6.6194 
  75   0.0000       0.248202         6.7539 
  76   0.0000       0.269195         7.3252 
  77   0.0000       0.284919         7.7530 
  78   0.0000       0.290585         7.9072 
  79   0.0000       0.294234         8.0065 
  80   0.0000       0.313280         8.5248 
  81   0.0000       0.529709        14.4141 
  82   0.0000       0.539194        14.6722 
  83   0.0000       0.549004        14.9392 
  84   0.0000       0.550044        14.9675 
  85   0.0000       0.562039        15.2939 
  86   0.0000       0.564255        15.3542 
  87   0.0000       0.571786        15.5591 
  88   0.0000       0.580767        15.8035 
  89   0.0000       0.588176        16.0051 
  90   0.0000       0.599714        16.3190 
  91   0.0000       0.615125        16.7384 
  92   0.0000       0.621563        16.9136 
  93   0.0000       0.631591        17.1865 
  94   0.0000       0.636256        17.3134 
  95   0.0000       0.648789        17.6545 
  96   0.0000       0.658082        17.9073 
  97   0.0000       0.676826        18.4174 
  98   0.0000       0.686426        18.6786 
  99   0.0000       0.716481        19.4964 
 100   0.0000       0.723696        19.6928 
 101   0.0000       0.755342        20.5539 
 102   0.0000       0.798028        21.7154 
 103   0.0000       0.807989        21.9865 
 104   0.0000       0.825176        22.4542 
 105   0.0000       0.834482        22.7074 
 106   0.0000       0.841978        22.9114 
 107   0.0000       0.847353        23.0577 
 108   0.0000       0.862914        23.4811 
 109   0.0000       0.875781        23.8312 
 110   0.0000       0.884474        24.0678 
 111   0.0000       0.892838        24.2954 
 112   0.0000       0.905830        24.6489 
 113   0.0000       0.909832        24.7578 
 114   0.0000       0.921465        25.0743 
 115   0.0000       0.923249        25.1229 
 116   0.0000       0.932279        25.3686 
 117   0.0000       0.942043        25.6343 
 118   0.0000       0.951661        25.8960 
 119   0.0000       0.968969        26.3670 
 120   0.0000       0.979777        26.6611 
 121   0.0000       0.983014        26.7492 
 122   0.0000       0.992791        27.0152 
 123   0.0000       1.024079        27.8666 
 124   0.0000       1.041656        28.3449 
 125   0.0000       1.056981        28.7619 
 126   0.0000       1.075152        29.2564 
 127   0.0000       1.098660        29.8961 
 128   0.0000       1.119275        30.4570 
 129   0.0000       1.148823        31.2611 
 130   0.0000       1.186190        32.2779 
 131   0.0000       1.224439        33.3187 
 132   0.0000       1.282543        34.8998 
 133   0.0000       1.308858        35.6158 
 134   0.0000       1.328343        36.1460 
 135   0.0000       1.363571        37.1046 
 136   0.0000       1.380893        37.5760 
 137   0.0000       1.417226        38.5647 
 138   0.0000       1.420953        38.6661 
 139   0.0000       1.468506        39.9601 
 140   0.0000       1.526097        41.5272 
 141   0.0000       1.580637        43.0113 
 142   0.0000       1.632795        44.4306 
 143   0.0000       1.674571        45.5674 
 144   0.0000       1.747834        47.5610 
 145   0.0000       1.888732        51.3950 
 146   0.0000       1.947482        52.9937 
 147   0.0000       2.079541        56.5872 
 148   0.0000       2.167696        58.9860 

                    ********************************
                    * MULLIKEN POPULATION ANALYSIS *
                    ********************************

-----------------------
MULLIKEN ATOMIC CHARGES
-----------------------
   0 C :    0.294775
   1 C :   -0.259512
   2 C :   -0.302485
   3 C :   -0.013456
   4 O :   -0.515941
   5 H :    0.148063
   6 H :    0.143188
   7 H :    0.166331
   8 H :    0.143544
   9 H :    0.164516
  10 H :    0.141032
  11 H :    0.148398
  12 C :    0.020040
  13 H :    0.136672
  14 H :    0.129450
  15 O :   -0.526171
  16 C :    0.064127
  17 C :    0.075439
  18 C :   -0.291473
  19 C :   -0.030652
  20 O :   -0.511244
  21 H :    0.166126
  22 O :   -0.602477
  23 H :    0.151753
  24 H :    0.162730
  25 H :    0.141216
  26 H :    0.145927
  27 H :    0.144829
  28 H :    0.365256
Sum of atomic charges:    0.0000000

--------------------------------
MULLIKEN REDUCED ORBITAL CHARGES
--------------------------------
  0 C s       :     3.191706  s :     3.191706
      pz      :     0.814826  p :     2.513519
      px      :     0.676238
      py      :     1.022455
  1 C s       :     3.304772  s :     3.304772
      pz      :     0.971086  p :     2.954741
      px      :     1.048681
      py      :     0.934973
  2 C s       :     3.315167  s :     3.315167
      pz      :     0.918827  p :     2.987318
      px      :     1.080968
      py      :     0.987523
  3 C s       :     3.266421  s :     3.266421
      pz      :     0.945208  p :     2.747036
      px      :     1.056170
      py      :     0.745657
  4 O s       :     3.940045  s :     3.940045
      pz      :     1.367817  p :     4.575896
      px      :     1.685589
      py      :     1.522491
  5 H s       :     0.851937  s :     0.851937
  6 H s       :     0.856812  s :     0.856812
  7 H s       :     0.833669  s :     0.833669
  8 H s       :     0.856456  s :     0.856456
  9 H s       :     0.835484  s :     0.835484
 10 H s       :     0.858968  s :     0.858968
 11 H s       :     0.851602  s :     0.851602
 12 C s       :     3.246990  s :     3.246990
      pz      :     0.886963  p :     2.732970
      px      :     0.903509
      py      :     0.942498
 13 H s       :     0.863328  s :     0.863328
 14 H s       :     0.870550  s :     0.870550
 15 O s       :     3.937678  s :     3.937678
      pz      :     1.601657  p :     4.588493
      px      :     1.300127
      py      :     1.686710
 16 C s       :     3.275499  s :     3.275499
      pz      :     1.043156  p :     2.660374
      px      :     0.905979
      py      :     0.711239
 17 C s       :     3.265949  s :     3.265949
      pz      :     0.888050  p :     2.658613
      px      :     0.743679
      py      :     1.026883
 18 C s       :     3.312356  s :     3.312356
      pz      :     0.974848  p :     2.979117
      px      :     1.088214
      py      :     0.916054
 19 C s       :     3.268618  s :     3.268618
      pz      :     0.715679  p :     2.762034
      px      :     1.051733
      py      :     0.994622
 20 O s       :     3.947318  s :     3.947318
      pz      :     1.399963  p :     4.563926
      px      :     1.739490
      py      :     1.424472
 21 H s       :     0.833874  s :     0.833874
 22 O s       :     3.920478  s :     3.920478
      pz      :     1.735751  p :     4.681998
      px      :     1.385495
      py      :     1.560752
 23 H s       :     0.848247  s :     0.848247
 24 H s       :     0.837270  s :     0.837270
 25 H s       :     0.858784  s :     0.858784
 26 H s       :     0.854073  s :     0.854073
 27 H s       :     0.855171  s :     0.855171
 28 H s       :     0.634744  s :     0.634744


                     *******************************
                     * LOEWDIN POPULATION ANALYSIS *
                     *******************************

----------------------
LOEWDIN ATOMIC CHARGES
----------------------
   0 C :    0.177759
   1 C :   -0.215094
   2 C :   -0.217631
   3 C :   -0.031099
   4 O :   -0.327485
   5 H :    0.097792
   6 H :    0.113064
   7 H :    0.128994
   8 H :    0.115160
   9 H :    0.120128
  10 H :    0.100901
  11 H :    0.105427
  12 C :   -0.036501
  13 H :    0.101982
  14 H :    0.094678
  15 O :   -0.327594
  16 C :    0.017613
  17 C :    0.035432
  18 C :   -0.240730
  19 C :   -0.039083
  20 O :   -0.321602
  21 H :    0.119869
  22 O :   -0.414460
  23 H :    0.115540
  24 H :    0.126486
  25 H :    0.111512
  26 H :    0.103669
  27 H :    0.101786
  28 H :    0.283489

-------------------------------
LOEWDIN REDUCED ORBITAL CHARGES
-------------------------------
  0 C s       :     2.953414  s :     2.953414
      pz      :     0.930505  p :     2.868827
      px      :     0.843415
      py      :     1.094907
  1 C s       :     2.976702  s :     2.976702
      pz      :     1.073666  p :     3.238392
      px      :     1.113513
      py      :     1.051214
  2 C s       :     2.970460  s :     2.970460
      pz      :     1.038920  p :     3.247171
      px      :     1.129610
      py      :     1.078640
  3 C s       :     2.986612  s :     2.986612
      pz      :     1.041061  p :     3.044486
      px      :     1.118572
      py      :     0.884853
  4 O s       :     3.604018  s :     3.604018
      pz      :     1.430629  p :     4.723468
      px      :     1.724497
      py      :     1.568342
  5 H s       :     0.902208  s :     0.902208
  6 H s       :     0.886936  s :     0.886936
  7 H s       :     0.871006  s :     0.871006
  8 H s       :     0.884840  s :     0.884840
  9 H s       :     0.879872  s :     0.879872
 10 H s       :     0.899099  s :     0.899099
 11 H s       :     0.894573  s :     0.894573
 12 C s       :     2.975869  s :     2.975869
      pz      :     0.991266  p :     3.060632
      px      :     1.034292
      py      :     1.035074
 13 H s       :     0.898018  s :     0.898018
 14 H s       :     0.905322  s :     0.905322
 15 O s       :     3.583158  s :     3.583158
      pz      :     1.647226  p :     4.744436
      px      :     1.370444
      py      :     1.726766
 16 C s       :     2.963274  s :     2.963274
      pz      :     1.109178  p :     3.019113
      px      :     1.044773
      py      :     0.865162
 17 C s       :     2.953513  s :     2.953513
      pz      :     1.026549  p :     3.011055
      px      :     0.891146
      py      :     1.093360
 18 C s       :     2.985159  s :     2.985159
      pz      :     1.080338  p :     3.255571
      px      :     1.131960
      py      :     1.043272
 19 C s       :     2.983831  s :     2.983831
      pz      :     0.855132  p :     3.055252
      px      :     1.110971
      py      :     1.089149
 20 O s       :     3.605084  s :     3.605084
      pz      :     1.461477  p :     4.716518
      px      :     1.770613
      py      :     1.484428
 21 H s       :     0.880131  s :     0.880131
 22 O s       :     3.613723  s :     3.613723
      pz      :     1.756032  p :     4.800737
      px      :     1.441257
      py      :     1.603448
 23 H s       :     0.884460  s :     0.884460
 24 H s       :     0.873514  s :     0.873514
 25 H s       :     0.888488  s :     0.888488
 26 H s       :     0.896331  s :     0.896331
 27 H s       :     0.898214  s :     0.898214
 28 H s       :     0.716511  s :     0.716511


                      *****************************
                      * MAYER POPULATION ANALYSIS *
                      *****************************

  NA   - Mulliken gross atomic population
  ZA   - Total nuclear charge
  QA   - Mulliken gross atomic charge
  VA   - Mayer's total valence
  BVA  - Mayer's bonded valence
  FA   - Mayer's free valence

  ATOM       NA         ZA         QA         VA         BVA        FA
  0 C      5.7052     6.0000     0.2948     3.6564     3.6564    -0.0000
  1 C      6.2595     6.0000    -0.2595     3.7261     3.7261     0.0000
  2 C      6.3025     6.0000    -0.3025     3.7645     3.7645     0.0000
  3 C      6.0135     6.0000    -0.0135     3.6603     3.6603    -0.0000
  4 O      8.5159     8.0000    -0.5159     1.7807     1.7807     0.0000
  5 H      0.8519     1.0000     0.1481     0.9276     0.9276    -0.0000
  6 H      0.8568     1.0000     0.1432     0.9337     0.9337     0.0000
  7 H      0.8337     1.0000     0.1663     0.9372     0.9372     0.0000
  8 H      0.8565     1.0000     0.1435     0.9369     0.9369     0.0000
  9 H      0.8355     1.0000     0.1645     0.9338     0.9338    -0.0000
 10 H      0.8590     1.0000     0.1410     0.9280     0.9280    -0.0000
 11 H      0.8516     1.0000     0.1484     0.9287     0.9287    -0.0000
 12 C      5.9800     6.0000     0.0200     3.6128     3.6128     0.0000
 13 H      0.8633     1.0000     0.1367     0.9319     0.9319     0.0000
 14 H      0.8705     1.0000     0.1295     0.9362     0.9362    -0.0000
 15 O      8.5262     8.0000    -0.5262     1.7297     1.7297     0.0000
 16 C      5.9359     6.0000     0.0641     3.6066     3.6066    -0.0000
 17 C      5.9246     6.0000     0.0754     3.6416     3.6416    -0.0000
 18 C      6.2915     6.0000    -0.2915     3.6910     3.6910     0.0000
 19 C      6.0307     6.0000    -0.0307     3.6712     3.6712     0.0000
 20 O      8.5112     8.0000    -0.5112     1.7776     1.7776     0.0000
 21 H      0.8339     1.0000     0.1661     0.9359     0.9359     0.0000
 22 O      8.6025     8.0000    -0.6025     1.7431     1.7431     0.0000
 23 H      0.8482     1.0000     0.1518     0.9368     0.9368     0.0000
 24 H      0.8373     1.0000     0.1627     0.9390     0.9390    -0.0000
 25 H      0.8588     1.0000     0.1412     0.9371     0.9371     0.0000
 26 H      0.8541     1.0000     0.1459     0.9266     0.9266     0.0000
 27 H      0.8552     1.0000     0.1448     0.9287     0.9287     0.0000
 28 H      0.6347     1.0000     0.3653     0.8328     0.8328     0.0000

  Mayer bond orders larger than 0.100000
B(  0-C ,  1-C ) :   0.9468 B(  0-C ,  4-O ) :   0.8961 B(  0-C ,  5-H ) :   0.9220 
B(  0-C , 15-O ) :   0.8526 B(  1-C ,  2-C ) :   0.9534 B(  1-C ,  6-H ) :   0.9378 
B(  1-C ,  7-H ) :   0.9345 B(  2-C ,  3-C ) :   0.9554 B(  2-C ,  8-H ) :   0.9447 
B(  2-C ,  9-H ) :   0.9438 B(  3-C ,  4-O ) :   0.8337 B(  3-C , 10-H ) :   0.9344 
B(  3-C , 11-H ) :   0.9403 B( 12-C , 13-H ) :   0.9126 B( 12-C , 14-H ) :   0.9203 
B( 12-C , 15-O ) :   0.8265 B( 12-C , 16-C ) :   0.8998 B( 16-C , 17-C ) :   0.9010 
B( 16-C , 20-O ) :   0.8613 B( 16-C , 21-H ) :   0.9240 B( 17-C , 18-C ) :   0.9117 
B( 17-C , 22-O ) :   0.8922 B( 17-C , 23-H ) :   0.9330 B( 18-C , 19-C ) :   0.9398 
B( 18-C , 24-H ) :   0.9370 B( 18-C , 25-H ) :   0.9343 B( 19-C , 20-O ) :   0.8545 
B( 19-C , 26-H ) :   0.9342 B( 19-C , 27-H ) :   0.9377 B( 22-O , 28-H ) :   0.7938 


-------
TIMINGS
-------

Total SCF time: 0 days 0 hours 7 min 8 sec 

Total time                  ....     428.199 sec
Sum of individual times     ....     334.544 sec  ( 78.1%)

Fock matrix formation       ....     274.275 sec  ( 64.1%)
  XC integration            ....     101.112 sec  ( 36.9% of F)
    Basis function eval.    ....       1.769 sec  (  1.7% of XC)
    Density eval.           ....       2.752 sec  (  2.7% of XC)
    XC-Functional eval.     ....       1.593 sec  (  1.6% of XC)
    XC-Potential eval.      ....       0.659 sec  (  0.7% of XC)
Diagonalization             ....       0.647 sec  (  0.2%)
Density matrix formation    ....       0.007 sec  (  0.0%)
Population analysis         ....      16.122 sec  (  3.8%)
Initial guess               ....       5.575 sec  (  1.3%)
Orbital Transformation      ....       0.000 sec  (  0.0%)
Orbital Orthonormalization  ....       0.005 sec  (  0.0%)
DIIS solution               ....       0.002 sec  (  0.0%)
SOSCF solution              ....      10.032 sec  (  2.3%)
Grid generation             ....      27.883 sec  (  6.5%)

-------------------------   --------------------
FINAL SINGLE POINT ENERGY      -652.862673692332
-------------------------   --------------------

                                *** OPTIMIZATION RUN DONE ***

                            ***************************************
                            *     ORCA property calculations      *
                            ***************************************

                                    ---------------------
                                    Active property flags
                                    ---------------------
   (+) Dipole Moment


------------------------------------------------------------------------------
                       ORCA ELECTRIC PROPERTIES CALCULATION
------------------------------------------------------------------------------

Dipole Moment Calculation                       ... on
Quadrupole Moment Calculation                   ... off
Polarizability Calculation                      ... off
GBWName                                         ... project_8052/ensemble_330_195.gbw
Electron density file                           ... project_8052/ensemble_330_195.scfp
The origin for moment calculation is the CENTER OF MASS  = (-43.910909, 49.451812 89.935804)

-------------
DIPOLE MOMENT
-------------
                                X             Y             Z
Electronic contribution:     -2.89897      -3.11148      -3.24354
Nuclear contribution   :      3.52486       3.76284       3.91479
                        -----------------------------------------
Total Dipole Moment    :      0.62589       0.65136       0.67126
                        -----------------------------------------
Magnitude (a.u.)       :      1.12543
Magnitude (Debye)      :      2.86061



--------------------
Rotational spectrum 
--------------------
 
Rotational constants in cm-1:     0.059037     0.012469     0.012164 
Rotational constants in MHz :  1769.898422   373.811444   364.659936 

 Dipole components along the rotational axes: 
x,y,z [a.u.] :    -0.622178     0.841411    -0.414141 
x,y,z [Debye]:    -1.581450     2.138697    -1.052662 

 

Timings for individual modules:

Sum of individual times         ...     6038.709 sec (= 100.645 min)
GTO integral calculation        ...      635.931 sec (=  10.599 min)  10.5 %
SCF iterations                  ...     5008.504 sec (=  83.475 min)  82.9 %
SCF Gradient evaluation         ...      244.125 sec (=   4.069 min)   4.0 %
Geometry relaxation             ...      150.149 sec (=   2.502 min)   2.5 %
                             ****ORCA TERMINATED NORMALLY****
TOTAL RUN TIME: 0 days 1 hours 47 minutes 0 seconds 161 msec
