
                                 *****************
                                 * O   R   C   A *
                                 *****************

           --- An Ab Initio, DFT and Semiempirical electronic structure package ---

                  #######################################################
                  #                        -***-                        #
                  #          Department of theory and spectroscopy      #
                  #               Directorship: Frank Neese             #
                  #        Max Planck Institute fuer Kohlenforschung    #
                  #                Kaiser Wilhelm Platz 1               #
                  #                 D-45470 Muelheim/Ruhr               #
                  #                      Germany                        #
                  #                                                     #
                  #                  All rights reserved                #
                  #                        -***-                        #
                  #######################################################


                         Program Version 4.2.0 -  RELEASE  -


 With contributions from (in alphabetic order):
   Daniel Aravena         : Magnetic Suceptibility
   Michael Atanasov       : Ab Initio Ligand Field Theory (pilot matlab implementation)
   Alexander A. Auer      : GIAO ZORA, VPT2
   Ute Becker             : Parallelization
   Giovanni Bistoni       : ED, misc. LED, open-shell LED, HFLED
   Martin Brehm           : Molecular dynamics
   Dmytro Bykov           : SCF Hessian
   Vijay G. Chilkuri      : MRCI spin determinant printing, contributions to CSF-ICE
   Dipayan Datta          : RHF DLPNO-CCSD density
   Achintya Kumar Dutta   : EOM-CC, STEOM-CC
   Dmitry Ganyushin       : Spin-Orbit,Spin-Spin,Magnetic field MRCI
   Miquel Garcia          : C-PCM Hessian, Gaussian charge scheme
   Yang Guo               : DLPNO-NEVPT2, CIM, IAO-localization
   Andreas Hansen         : Spin unrestricted coupled pair/coupled cluster methods
   Benjamin Helmich-Paris : CASSCF linear response (MC-RPA)
   Lee Huntington         : MR-EOM, pCC
   Robert Izsak           : Overlap fitted RIJCOSX, COSX-SCS-MP3, EOM
   Christian Kollmar      : KDIIS, OOCD, Brueckner-CCSD(T), CCSD density
   Simone Kossmann        : Meta GGA functionals, TD-DFT gradient, OOMP2, MP2 Hessian
   Martin Krupicka        : AUTO-CI
   Lucas Lang             : DCDCAS
   Dagmar Lenk            : GEPOL surface, SMD
   Dimitrios Liakos       : Extrapolation schemes; Compound Job, initial MDCI parallelization
   Dimitrios Manganas     : Further ROCIS development; embedding schemes
   Dimitrios Pantazis     : SARC Basis sets
   Taras Petrenko         : DFT Hessian,TD-DFT gradient, ASA, ECA, R-Raman, ABS, FL, XAS/XES, NRVS
   Peter Pinski           : DLPNO-MP2, DLPNO-MP2 Gradient
   Christoph Reimann      : Effective Core Potentials
   Marius Retegan         : Local ZFS, SOC
   Christoph Riplinger    : Optimizer, TS searches, QM/MM, DLPNO-CCSD(T), (RO)-DLPNO pert. Triples
   Tobias Risthaus        : Range-separated hybrids, TD-DFT gradient, RPA, STAB
   Michael Roemelt        : Original ROCIS implementation
   Masaaki Saitow         : Open-shell DLPNO-CCSD energy and density
   Barbara Sandhoefer     : DKH picture change effects
   Avijit Sen             : IP-ROCIS
   Kantharuban Sivalingam : CASSCF convergence, NEVPT2, FIC-MRCI
   Bernardo de Souza      : ESD, SOC TD-DFT
   Georgi Stoychev        : AutoAux, RI-MP2 NMR
   Willem Van den Heuvel  : Paramagnetic NMR
   Boris Wezisla          : Elementary symmetry handling
   Frank Wennmohs         : Technical directorship


 We gratefully acknowledge several colleagues who have allowed us to
 interface, adapt or use parts of their codes:
   Stefan Grimme, W. Hujo, H. Kruse,             : VdW corrections, initial TS optimization,
                  C. Bannwarth                     DFT functionals, gCP, sTDA/sTD-DF
   Ed Valeev, F. Pavosevic, A. Kumar             : LibInt (2-el integral package), F12 methods
   Garnet Chan, S. Sharma, J. Yang, R. Olivares  : DMRG
   Ulf Ekstrom                                   : XCFun DFT Library
   Mihaly Kallay                                 : mrcc  (arbitrary order and MRCC methods)
   Andreas Klamt, Michael Diedenhofen            : otool_cosmo (COSMO solvation model)
   Jiri Pittner, Ondrej Demel                    : Mk-CCSD
   Frank Weinhold                                : gennbo (NPA and NBO analysis)
   Christopher J. Cramer and Donald G. Truhlar   : smd solvation model
   Lars Goerigk                                  : TD-DFT with DH, B97 family of functionals
   V. Asgeirsson, H. Jonsson                     : NEB implementation
   FAccTs GmbH                                   : IRC, NEB, NEB-TS, Multilevel, MM, QM/MM, CI optimization
   S Lehtola, MJT Oliveira, MAL Marques          : LibXC Library


 Your calculation uses the libint2 library for the computation of 2-el integrals
 For citations please refer to: http://libint.valeyev.net

 Your ORCA version has been built with support for libXC version: 4.2.3
 For citations please refer to: https://tddft.org/programs/libxc/

 This ORCA versions uses:
   CBLAS   interface :  Fast vector & matrix operations
   LAPACKE interface :  Fast linear algebra routines
   SCALAPACK package :  Parallel linear algebra routines


----- Orbital basis set information -----
Your calculation utilizes the basis: 6-31G
   H-He, Li-Ne : W. J. Hehre, R. Ditchfield and J.A. Pople, J. Chem. Phys. 56, 2257 (1972).
                 Note: He and Ne are unpublished basis sets taken from the Gaussian program.
                 Note: Li and B from J. D. Dill and J. A. Pople, J. Chem. Phys. 62, 2921 (1975).
   Na - Ar     : M. M. Francl, W. J. Pietro, W. J. Hehre, J. S. Binkley, M. S. Gordon, 
                 D. J. DeFrees and J. A. Pople, J. Chem. Phys. 77, 3654 (1982).
   K - Zn      : V. A. Rassolov, J. A. Pople, M. A. Ratner, and T. L. Windus, J. Chem. Phys. 109, 1223 (1998).

================================================================================
                                        WARNINGS
                       Please study these warnings very carefully!
================================================================================


WARNING: Geometry Optimization
  ===> : Switching off AutoStart
         For restart on a previous wavefunction, please use MOREAD

INFO   : the flag for use of LIBINT has been found!

================================================================================
                                       INPUT FILE
================================================================================
NAME = project_8050/ensemble_195_255.inp
|  1> # Test redundant internal optimization
|  2> #
|  3> ! RKS B3LYP  Opt TightSCF SmallPrint
|  4> 
|  5> %basis
|  6>         Basis "6-31G"
|  7> end
|  8> 
|  9> %geom
| 10> Constraints
| 11> { D 4  0  15  12  195.0   C } # D for Dihedral angle
| 12> { D 0  15  12  16  255.0   C } # D for Dihedral angle
| 13> { D 0  4  3  2   C } # D for Dihedral angle
| 14> { D 4  3  2  1   C } # D for Dihedral angle
| 15> { D 3  2  1  0   C } # D for Dihedral angle
| 16> { D 2  1  0  4   C } # D for Dihedral angle
| 17> { D 1  0  4  3   C } # D for Dihedral angle
| 18> { D 16  20  19  18   C } # D for Dihedral angle
| 19> { D 20  19  18  17   C } # D for Dihedral angle
| 20> { D 19  18  17  16   C } # D for Dihedral angle
| 21> { D 18  17  16  20   C } # D for Dihedral angle
| 22> { D 17  16  20  19   C } # D for Dihedral angle
| 23> { D 15  12  16  20   C } # D for Dihedral angle
| 24> end
| 25> end
| 26> 
| 27> 
| 28> #%pal 
| 29> #nprocs 8
| 30> #end
| 31> 
| 32> * xyz 0 1
| 33> C  -21.048   26.222   46.251
| 34> C  -20.361   27.558   45.944
| 35> C  -20.329   28.222   47.341
| 36> C  -20.110   27.022   48.296
| 37> O  -20.473   25.807   47.535
| 38> H  -20.833   25.428   45.533
| 39> H  -19.344   27.382   45.576
| 40> H  -20.898   28.157   45.201
| 41> H  -19.543   28.978   47.434
| 42> H  -21.289   28.710   47.548
| 43> H  -20.733   27.082   49.195
| 44> H  -19.064   26.913   48.597
| 45> C  -23.353   26.472   45.026
| 46> H  -22.701   26.117   44.218
| 47> H  -24.245   25.833   45.054
| 48> O  -22.586   26.394   46.375
| 49> C  -23.816   27.915   44.681
| 50> C  -22.618   28.844   44.455
| 51> C  -22.198   28.469   43.014
| 52> C  -23.550   28.165   42.322
| 53> O  -24.532   27.931   43.402
| 54> H  -24.517   28.257   45.445
| 55> O  -23.075   30.327   44.525
| 56> H  -21.815   28.697   45.185
| 57> H  -21.643   29.268   42.513
| 58> H  -21.561   27.577   43.029
| 59> H  -23.502   27.278   41.681
| 60> H  -23.915   29.009   41.730
| 61> H  -23.881   30.500   43.802
| 62> *
| 63> 
| 64>                          ****END OF INPUT****
================================================================================

                       *****************************
                       * Geometry Optimization Run *
                       *****************************

Geometry optimization settings:
Update method            Update   .... BFGS
Choice of coordinates    CoordSys .... Z-matrix Internals
Initial Hessian          InHess   .... Almoef's Model

Convergence Tolerances:
Energy Change            TolE     ....  5.0000e-06 Eh
Max. Gradient            TolMAXG  ....  3.0000e-04 Eh/bohr
RMS Gradient             TolRMSG  ....  1.0000e-04 Eh/bohr
Max. Displacement        TolMAXD  ....  4.0000e-03 bohr
RMS Displacement         TolRMSD  ....  2.0000e-03 bohr
Strict Convergence                ....  False
------------------------------------------------------------------------------
                        ORCA OPTIMIZATION COORDINATE SETUP
------------------------------------------------------------------------------

The optimization will be done in new redundant internal coordinates
Making redundant internal coordinates   ...  (new redundants) done
Evaluating the initial hessian          ...  (Almloef) done
Evaluating the coordinates              ...  done
Calculating the B-matrix                .... done
Calculating the G-matrix                .... done
Diagonalizing the G-matrix              .... done
Imposing constraints:
 Iter   0:  RMS(Cart)=    0.0000938728 RMS(Int)=    0.0000288659
 Iter   1:  RMS(Cart)=    0.0000475499 RMS(Int)=    0.0000156782
 Iter   2:  RMS(Cart)=    0.0000251548 RMS(Int)=    0.0000092952
 Iter   3:  RMS(Cart)=    0.0000140017 RMS(Int)=    0.0000061129
 Iter   4:  RMS(Cart)=    0.0000082332 RMS(Int)=    0.0000044703
 Iter   5:  RMS(Cart)=    0.0000051147 RMS(Int)=    0.0000035925
 Iter   6:  RMS(Cart)=    0.0000033491 RMS(Int)=    0.0000031049
 Iter   7:  RMS(Cart)=    0.0000023063 RMS(Int)=    0.0000028191
 Iter   8:  RMS(Cart)=    0.0000016691 RMS(Int)=    0.0000026380
 Iter   9:  RMS(Cart)=    0.0000012704 RMS(Int)=    0.0000025113
 Iter  10:  RMS(Cart)=    0.0000010167 RMS(Int)=    0.0000024133
 Iter  11:  RMS(Cart)=    0.0000008528 RMS(Int)=    0.0000023310
 Iter  12:  RMS(Cart)=    0.0000007447 RMS(Int)=    0.0000022576
 Iter  13:  RMS(Cart)=    0.0000006711 RMS(Int)=    0.0000021898
 Iter  14:  RMS(Cart)=    0.0000006189 RMS(Int)=    0.0000021257
 Iter  15:  RMS(Cart)=    0.0000005799 RMS(Int)=    0.0000020645
 Iter  16:  RMS(Cart)=    0.0000005492 RMS(Int)=    0.0000020056
 Iter  17:  RMS(Cart)=    0.0000005240 RMS(Int)=    0.0000019487
 Iter  18:  RMS(Cart)=    0.0000005024 RMS(Int)=    0.0000018938
 Iter  19:  RMS(Cart)=    0.0000004833 RMS(Int)=    0.0000018406
 Iter  20:  RMS(Cart)=    0.0000004660 RMS(Int)=    0.0000017891
 Iter  21:  RMS(Cart)=    0.0000004500 RMS(Int)=    0.0000017392
 Iter  22:  RMS(Cart)=    0.0000004351 RMS(Int)=    0.0000016909
 Iter  23:  RMS(Cart)=    0.0000004209 RMS(Int)=    0.0000016441
 Iter  24:  RMS(Cart)=    0.0000004075 RMS(Int)=    0.0000015987
 Iter  25:  RMS(Cart)=    0.0000003947 RMS(Int)=    0.0000015547
 Iter  26:  RMS(Cart)=    0.0000003824 RMS(Int)=    0.0000015121
 Iter  27:  RMS(Cart)=    0.0000003706 RMS(Int)=    0.0000014708
 Iter  28:  RMS(Cart)=    0.0000003592 RMS(Int)=    0.0000014308
 Iter  29:  RMS(Cart)=    0.0000003482 RMS(Int)=    0.0000013919
 Iter  30:  RMS(Cart)=    0.0000003376 RMS(Int)=    0.0000013543
 Iter  31:  RMS(Cart)=    0.0000003274 RMS(Int)=    0.0000013178
 Iter  32:  RMS(Cart)=    0.0000003175 RMS(Int)=    0.0000012824
 Iter  33:  RMS(Cart)=    0.0000003079 RMS(Int)=    0.0000012481
 Iter  34:  RMS(Cart)=    0.0000002986 RMS(Int)=    0.0000012148
 Iter  35:  RMS(Cart)=    0.0000002897 RMS(Int)=    0.0000011825
 Iter  36:  RMS(Cart)=    0.0000002810 RMS(Int)=    0.0000011512
 Iter  37:  RMS(Cart)=    0.0000002726 RMS(Int)=    0.0000011208
 Iter  38:  RMS(Cart)=    0.0000002644 RMS(Int)=    0.0000010914
 Iter  39:  RMS(Cart)=    0.0000002566 RMS(Int)=    0.0000010628
 Iter  40:  RMS(Cart)=    0.0000002490 RMS(Int)=    0.0000010350
 Iter  41:  RMS(Cart)=    0.0000002416 RMS(Int)=    0.0000010081
 Iter  42:  RMS(Cart)=    0.0000002344 RMS(Int)=    0.0000009820
 Iter  43:  RMS(Cart)=    0.0000002275 RMS(Int)=    0.0000009567
 Iter  44:  RMS(Cart)=    0.0000002208 RMS(Int)=    0.0000009321
 Iter  45:  RMS(Cart)=    0.0000002143 RMS(Int)=    0.0000009082
 Iter  46:  RMS(Cart)=    0.0000002080 RMS(Int)=    0.0000008851
 Iter  47:  RMS(Cart)=    0.0000002019 RMS(Int)=    0.0000008626
 Iter  48:  RMS(Cart)=    0.0000001960 RMS(Int)=    0.0000008407
 Iter  49:  RMS(Cart)=    0.0000001903 RMS(Int)=    0.0000008195
 Iter  50:  RMS(Cart)=    0.0000001848 RMS(Int)=    0.0000007990
 Iter  51:  RMS(Cart)=    0.0000001794 RMS(Int)=    0.0000007790
 Iter  52:  RMS(Cart)=    0.0000001742 RMS(Int)=    0.0000007596
 Iter  53:  RMS(Cart)=    0.0000001691 RMS(Int)=    0.0000007408
 Iter  54:  RMS(Cart)=    0.0000001643 RMS(Int)=    0.0000007225
 Iter  55:  RMS(Cart)=    0.0000001595 RMS(Int)=    0.0000007047
 Iter  56:  RMS(Cart)=    0.0000001549 RMS(Int)=    0.0000006874
 Iter  57:  RMS(Cart)=    0.0000001505 RMS(Int)=    0.0000006707
 Iter  58:  RMS(Cart)=    0.0000001462 RMS(Int)=    0.0000006544
 Iter  59:  RMS(Cart)=    0.0000001420 RMS(Int)=    0.0000006386
 Iter  60:  RMS(Cart)=    0.0000001379 RMS(Int)=    0.0000006232
 Iter  61:  RMS(Cart)=    0.0000001340 RMS(Int)=    0.0000006083
 Iter  62:  RMS(Cart)=    0.0000001302 RMS(Int)=    0.0000005938
 Iter  63:  RMS(Cart)=    0.0000001265 RMS(Int)=    0.0000005797
 Iter  64:  RMS(Cart)=    0.0000001229 RMS(Int)=    0.0000005660
 Iter  65:  RMS(Cart)=    0.0000001195 RMS(Int)=    0.0000005527
 Iter  66:  RMS(Cart)=    0.0000001161 RMS(Int)=    0.0000005397
 Iter  67:  RMS(Cart)=    0.0000001128 RMS(Int)=    0.0000005271
 Iter  68:  RMS(Cart)=    0.0000001097 RMS(Int)=    0.0000005149
 Iter  69:  RMS(Cart)=    0.0000001066 RMS(Int)=    0.0000005030
 Iter  70:  RMS(Cart)=    0.0000001036 RMS(Int)=    0.0000004915
 Iter  71:  RMS(Cart)=    0.0000001007 RMS(Int)=    0.0000004802
 Iter  72:  RMS(Cart)=    0.0000000979 RMS(Int)=    0.0000004693
 Iter  73:  RMS(Cart)=    0.0000000952 RMS(Int)=    0.0000004587
 Iter  74:  RMS(Cart)=    0.0000000926 RMS(Int)=    0.0000004484
 Iter  75:  RMS(Cart)=    0.0000000900 RMS(Int)=    0.0000004383
 Iter  76:  RMS(Cart)=    0.0000000875 RMS(Int)=    0.0000004286
 Iter  77:  RMS(Cart)=    0.0000000851 RMS(Int)=    0.0000004191
 Iter  78:  RMS(Cart)=    0.0000000828 RMS(Int)=    0.0000004098
 Iter  79:  RMS(Cart)=    0.0000000805 RMS(Int)=    0.0000004008
 Iter  80:  RMS(Cart)=    0.0000000783 RMS(Int)=    0.0000003921
 Iter  81:  RMS(Cart)=    0.0000000762 RMS(Int)=    0.0000003836
 Iter  82:  RMS(Cart)=    0.0000000741 RMS(Int)=    0.0000003753
 Iter  83:  RMS(Cart)=    0.0000000721 RMS(Int)=    0.0000003672
 Iter  84:  RMS(Cart)=    0.0000000702 RMS(Int)=    0.0000003594
 Iter  85:  RMS(Cart)=    0.0000000683 RMS(Int)=    0.0000003517
 Iter  86:  RMS(Cart)=    0.0000000664 RMS(Int)=    0.0000003443
 Iter  87:  RMS(Cart)=    0.0000000647 RMS(Int)=    0.0000003371
 Iter  88:  RMS(Cart)=    0.0000000629 RMS(Int)=    0.0000003300
 Iter  89:  RMS(Cart)=    0.0000000612 RMS(Int)=    0.0000003232
 Iter  90:  RMS(Cart)=    0.0000000596 RMS(Int)=    0.0000003165
 Iter  91:  RMS(Cart)=    0.0000000580 RMS(Int)=    0.0000003100
 Iter  92:  RMS(Cart)=    0.0000000565 RMS(Int)=    0.0000003037
 Iter  93:  RMS(Cart)=    0.0000000550 RMS(Int)=    0.0000002975
 Iter  94:  RMS(Cart)=    0.0000000535 RMS(Int)=    0.0000002915
 Iter  95:  RMS(Cart)=    0.0000000521 RMS(Int)=    0.0000002856
 Iter  96:  RMS(Cart)=    0.0000000508 RMS(Int)=    0.0000002799
 Iter  97:  RMS(Cart)=    0.0000000494 RMS(Int)=    0.0000002744
 Iter  98:  RMS(Cart)=    0.0000000481 RMS(Int)=    0.0000002690
 Iter  99:  RMS(Cart)=    0.0000000469 RMS(Int)=    0.0000002637
 RMS(Cart) too big - taking linear step, building new B-matrix and trying again
Imposing constraints:
 Iter   0:  RMS(Cart)=    0.0000475498 RMS(Int)=    0.0000156782
 Iter   1:  RMS(Cart)=    0.0000251549 RMS(Int)=    0.0000092953
 Iter   2:  RMS(Cart)=    0.0000140017 RMS(Int)=    0.0000061130
 Iter   3:  RMS(Cart)=    0.0000082333 RMS(Int)=    0.0000044705
 Iter   4:  RMS(Cart)=    0.0000051148 RMS(Int)=    0.0000035927
 Iter   5:  RMS(Cart)=    0.0000033492 RMS(Int)=    0.0000031052
 Iter   6:  RMS(Cart)=    0.0000023063 RMS(Int)=    0.0000028195
 Iter   7:  RMS(Cart)=    0.0000016692 RMS(Int)=    0.0000026383
 Iter   8:  RMS(Cart)=    0.0000012705 RMS(Int)=    0.0000025116
 Iter   9:  RMS(Cart)=    0.0000010168 RMS(Int)=    0.0000024137
 Iter  10:  RMS(Cart)=    0.0000008529 RMS(Int)=    0.0000023313
 Iter  11:  RMS(Cart)=    0.0000007448 RMS(Int)=    0.0000022579
 Iter  12:  RMS(Cart)=    0.0000006712 RMS(Int)=    0.0000021901
 Iter  13:  RMS(Cart)=    0.0000006189 RMS(Int)=    0.0000021260
 Iter  14:  RMS(Cart)=    0.0000005799 RMS(Int)=    0.0000020647
 Iter  15:  RMS(Cart)=    0.0000005493 RMS(Int)=    0.0000020058
 Iter  16:  RMS(Cart)=    0.0000005241 RMS(Int)=    0.0000019490
 Iter  17:  RMS(Cart)=    0.0000005025 RMS(Int)=    0.0000018940
 Iter  18:  RMS(Cart)=    0.0000004834 RMS(Int)=    0.0000018409
 Iter  19:  RMS(Cart)=    0.0000004660 RMS(Int)=    0.0000017894
 Iter  20:  RMS(Cart)=    0.0000004501 RMS(Int)=    0.0000017395
 Iter  21:  RMS(Cart)=    0.0000004351 RMS(Int)=    0.0000016911
 Iter  22:  RMS(Cart)=    0.0000004210 RMS(Int)=    0.0000016443
 Iter  23:  RMS(Cart)=    0.0000004076 RMS(Int)=    0.0000015989
 Iter  24:  RMS(Cart)=    0.0000003948 RMS(Int)=    0.0000015550
 Iter  25:  RMS(Cart)=    0.0000003825 RMS(Int)=    0.0000015123
 Iter  26:  RMS(Cart)=    0.0000003706 RMS(Int)=    0.0000014710
 Iter  27:  RMS(Cart)=    0.0000003592 RMS(Int)=    0.0000014310
 Iter  28:  RMS(Cart)=    0.0000003483 RMS(Int)=    0.0000013921
 Iter  29:  RMS(Cart)=    0.0000003377 RMS(Int)=    0.0000013545
 Iter  30:  RMS(Cart)=    0.0000003274 RMS(Int)=    0.0000013180
 Iter  31:  RMS(Cart)=    0.0000003175 RMS(Int)=    0.0000012826
 Iter  32:  RMS(Cart)=    0.0000003079 RMS(Int)=    0.0000012483
 Iter  33:  RMS(Cart)=    0.0000002987 RMS(Int)=    0.0000012150
 Iter  34:  RMS(Cart)=    0.0000002897 RMS(Int)=    0.0000011827
 Iter  35:  RMS(Cart)=    0.0000002810 RMS(Int)=    0.0000011514
 Iter  36:  RMS(Cart)=    0.0000002726 RMS(Int)=    0.0000011210
 Iter  37:  RMS(Cart)=    0.0000002645 RMS(Int)=    0.0000010915
 Iter  38:  RMS(Cart)=    0.0000002566 RMS(Int)=    0.0000010629
 Iter  39:  RMS(Cart)=    0.0000002490 RMS(Int)=    0.0000010352
 Iter  40:  RMS(Cart)=    0.0000002416 RMS(Int)=    0.0000010083
 Iter  41:  RMS(Cart)=    0.0000002345 RMS(Int)=    0.0000009822
CONVERGED
Small eigenvalue found = 5.768e-03
Small eigenvalue found = 1.040e-02
Small eigenvalue found = 1.267e-02
The first mode is                       ....   91
The number of degrees of freedom        ....   81
Storing new coordinates                 .... done

    -----------------------------------------------------------------
                    Redundant Internal Coordinates


    -----------------------------------------------------------------
         Definition                    Initial Value    Approx d2E/dq
    -----------------------------------------------------------------
      1. B(C   1,C   0)                  1.5333         0.369027   
      2. B(C   2,C   1)                  1.5471         0.350825   
      3. B(C   3,C   2)                  1.5492         0.348147   
      4. B(O   4,C   0)                  1.4668         0.422031   
      5. B(O   4,C   3)                  1.4789         0.403699   
      6. B(H   5,C   0)                  1.0919         0.357632   
      7. B(H   6,C   1)                  1.0958         0.352561   
      8. B(H   7,C   1)                  1.0951         0.353431   
      9. B(H   8,C   2)                  1.0945         0.354166   
     10. B(H   9,C   2)                  1.0966         0.351438   
     11. B(H  10,C   3)                  1.0954         0.353010   
     12. B(H  11,C   3)                  1.0939         0.354989   
     13. B(H  13,C  12)                  1.0973         0.350615   
     14. B(H  14,C  12)                  1.0976         0.350160   
     15. B(O  15,C   0)                  1.5525         0.307993   
     16. B(O  15,C  12)                  1.5538         0.306623   
     17. B(C  16,C  12)                  1.5542         0.341754   
     18. B(C  17,C  16)                  1.5328         0.369820   
     19. B(C  18,C  17)                  1.5471         0.350834   
     20. B(C  19,C  18)                  1.5489         0.348478   
     21. B(O  20,C  16)                  1.4659         0.423488   
     22. B(O  20,C  19)                  1.4783         0.404520   
     23. B(H  21,C  16)                  1.0918         0.357706   
     24. B(O  22,C  17)                  1.5534         0.307035   
     25. B(H  23,C  17)                  1.0951         0.353372   
     26. B(H  24,C  18)                  1.0943         0.354495   
     27. B(H  25,C  18)                  1.0962         0.351989   
     28. B(H  26,C  19)                  1.0954         0.352996   
     29. B(H  27,C  19)                  1.0936         0.355331   
     30. B(H  28,O  22)                  1.0965         0.314922   
     31. A(O   4,C   0,H   5)          107.0215         0.328541   
     32. A(C   1,C   0,O  15)          111.3021         0.348740   
     33. A(C   1,C   0,O   4)          104.2485         0.367935   
     34. A(O   4,C   0,O  15)          110.4735         0.354548   
     35. A(C   1,C   0,H   5)          114.4377         0.323302   
     36. A(H   5,C   0,O  15)          109.1576         0.312058   
     37. A(C   0,C   1,C   2)          101.6797         0.358729   
     38. A(C   2,C   1,H   7)          112.8319         0.320016   
     39. A(C   2,C   1,H   6)          110.6708         0.319888   
     40. A(C   0,C   1,H   6)          110.0677         0.322546   
     41. A(H   6,C   1,H   7)          108.3681         0.289027   
     42. A(C   0,C   1,H   7)          113.1242         0.322677   
     43. A(C   1,C   2,H   8)          112.8318         0.320125   
     44. A(C   1,C   2,C   3)          103.1267         0.355196   
     45. A(C   1,C   2,H   9)          110.0800         0.319721   
     46. A(C   3,C   2,H   9)          110.6152         0.319321   
     47. A(C   3,C   2,H   8)          112.4038         0.319725   
     48. A(H   8,C   2,H   9)          107.7728         0.288977   
     49. A(O   4,C   3,H  10)          109.1298         0.325449   
     50. A(C   2,C   3,H  10)          112.5253         0.319554   
     51. A(C   2,C   3,O   4)          106.5275         0.361529   
     52. A(O   4,C   3,H  11)          107.1237         0.325748   
     53. A(H  10,C   3,H  11)          108.8728         0.289284   
     54. A(C   2,C   3,H  11)          112.4566         0.319846   
     55. A(C   0,O   4,C   3)          108.3147         0.371320   
     56. A(H  14,C  12,C  16)          107.6987         0.318168   
     57. A(H  13,C  12,H  14)          108.2598         0.288357   
     58. A(H  13,C  12,O  15)          109.2538         0.310835   
     59. A(H  14,C  12,O  15)          110.4755         0.310770   
     60. A(O  15,C  12,C  16)          112.7296         0.344008   
     61. A(H  13,C  12,C  16)          108.3002         0.318235   
     62. A(C   0,O  15,C  12)          115.1654         0.336025   
     63. A(C  12,C  16,C  17)          111.2606         0.357265   
     64. A(C  12,C  16,O  20)          110.4458         0.363344   
     65. A(C  17,C  16,O  20)          104.2706         0.368289   
     66. A(C  12,C  16,H  21)          109.0725         0.319277   
     67. A(C  17,C  16,H  21)          114.5285         0.323427   
     68. A(O  20,C  16,H  21)          107.0694         0.328740   
     69. A(C  16,C  17,C  18)          101.6898         0.358862   
     70. A(C  16,C  17,O  22)          110.0016         0.348684   
     71. A(C  18,C  17,O  22)          110.6859         0.345604   
     72. A(C  16,C  17,H  23)          113.1700         0.322781   
     73. A(C  18,C  17,H  23)          112.9095         0.320009   
     74. A(O  22,C  17,H  23)          108.2899         0.311297   
     75. A(C  17,C  18,C  19)          103.1047         0.355255   
     76. A(C  17,C  18,H  24)          112.7771         0.320175   
     77. A(C  19,C  18,H  24)          112.4245         0.319823   
     78. A(C  17,C  18,H  25)          110.0138         0.319804   
     79. A(C  19,C  18,H  25)          110.7093         0.319453   
     80. A(H  24,C  18,H  25)          107.7997         0.289090   
     81. A(C  18,C  19,O  20)          106.5285         0.361713   
     82. A(C  18,C  19,H  26)          112.4639         0.319602   
     83. A(O  20,C  19,H  26)          109.1734         0.325555   
     84. A(C  18,C  19,H  27)          112.4385         0.319946   
     85. A(O  20,C  19,H  27)          107.2126         0.325908   
     86. A(H  26,C  19,H  27)          108.8306         0.289326   
     87. A(C  16,O  20,C  19)          108.3425         0.371670   
     88. A(C  17,O  22,H  28)          109.7043         0.303052   
     89. D(H   7,C   1,C   0,H   5)     82.1518         0.010890   
     90. D(C   2,C   1,C   0,O  15)     79.0868         0.010890   
     91. D(H   7,C   1,C   0,O  15)    -42.1868         0.010890   
     92. D(H   6,C   1,C   0,O   4)     77.3259         0.010890   
     93. D(H   6,C   1,C   0,O  15)   -163.5727         0.010890   
     94. D(H   6,C   1,C   0,H   5)    -39.2341         0.010890   
     95. D(H   7,C   1,C   0,O   4)   -161.2882         0.010890   
     96. D(C   2,C   1,C   0,O   4)    -40.0145         0.010890 C 
     97. D(C   2,C   1,C   0,H   5)   -156.5745         0.010890   
     98. D(H   9,C   2,C   1,H   6)    160.0776         0.009912   
     99. D(H   8,C   2,C   1,C   0)    156.5479         0.009912   
    100. D(H   8,C   2,C   1,H   6)     39.6446         0.009912   
    101. D(C   3,C   2,C   1,C   0)     35.0270         0.009912 C 
    102. D(H   8,C   2,C   1,H   7)    -81.9752         0.009912   
    103. D(H   9,C   2,C   1,C   0)    -83.0191         0.009912   
    104. D(C   3,C   2,C   1,H   6)    -81.8763         0.009912   
    105. D(H   9,C   2,C   1,H   7)     38.4578         0.009912   
    106. D(C   3,C   2,C   1,H   7)    156.5039         0.009912   
    107. D(H  11,C   3,C   2,H   9)   -143.4628         0.009774   
    108. D(O   4,C   3,C   2,H   8)   -140.0066         0.009774   
    109. D(O   4,C   3,C   2,H   9)     99.4739         0.009774   
    110. D(H  10,C   3,C   2,C   1)   -137.7432         0.009774   
    111. D(H  10,C   3,C   2,H   8)    100.4468         0.009774   
    112. D(H  10,C   3,C   2,H   9)    -20.0727         0.009774   
    113. D(H  11,C   3,C   2,C   1)     98.8667         0.009774   
    114. D(O   4,C   3,C   2,C   1)    -18.1967         0.009774 C 
    115. D(H  11,C   3,C   2,H   8)    -22.9433         0.009774   
    116. D(C   3,O   4,C   0,C   1)     29.5918         0.014035 C 
    117. D(C   3,O   4,C   0,H   5)    151.2015         0.014035   
    118. D(C   3,O   4,C   0,O  15)    -90.0712         0.014035   
    119. D(C   0,O   4,C   3,C   2)     -6.8732         0.012866 C 
    120. D(C   0,O   4,C   3,H  10)    114.8547         0.012866   
    121. D(C   0,O   4,C   3,H  11)   -127.4272         0.012866   
    122. D(C   0,O  15,C  12,C  16)   -105.0000         0.007733 C 
    123. D(C  12,O  15,C   0,O   4)   -165.0000         0.007793 C 
    124. D(C  12,O  15,C   0,H   5)    -47.5810         0.007793   
    125. D(C   0,O  15,C  12,H  14)    134.4520         0.007733   
    126. D(C   0,O  15,C  12,H  13)     15.4594         0.007733   
    127. D(C  12,O  15,C   0,C   1)     79.6866         0.007793   
    128. D(C  17,C  16,C  12,H  13)    -56.3157         0.009448   
    129. D(H  21,C  16,C  12,H  14)     59.5243         0.009448   
    130. D(C  17,C  16,C  12,O  15)     64.6890         0.009448   
    131. D(O  20,C  16,C  12,H  13)     58.9833         0.009448   
    132. D(O  20,C  16,C  12,H  14)    -57.8857         0.009448   
    133. D(O  20,C  16,C  12,O  15)    179.9880         0.009448 C 
    134. D(C  17,C  16,C  12,H  14)   -173.1847         0.009448   
    135. D(H  21,C  16,C  12,H  13)    176.3932         0.009448   
    136. D(H  21,C  16,C  12,O  15)    -62.6020         0.009448   
    137. D(C  18,C  17,C  16,C  12)     79.0959         0.010934   
    138. D(C  18,C  17,C  16,O  20)    -39.9645         0.010934 C 
    139. D(C  18,C  17,C  16,H  21)   -156.6432         0.010934   
    140. D(O  22,C  17,C  16,C  12)   -163.5690         0.010934   
    141. D(O  22,C  17,C  16,O  20)     77.3706         0.010934   
    142. D(O  22,C  17,C  16,H  21)    -39.3081         0.010934   
    143. D(H  23,C  17,C  16,C  12)    -42.3000         0.010934   
    144. D(H  23,C  17,C  16,O  20)   -161.3604         0.010934   
    145. D(H  23,C  17,C  16,H  21)     81.9609         0.010934   
    146. D(H  24,C  18,C  17,H  23)    -81.9181         0.009913   
    147. D(C  19,C  18,C  17,O  22)    -81.8367         0.009913   
    148. D(C  19,C  18,C  17,H  23)    156.5791         0.009913   
    149. D(H  24,C  18,C  17,C  16)    156.5051         0.009913   
    150. D(C  19,C  18,C  17,C  16)     35.0022         0.009913 C 
    151. D(H  24,C  18,C  17,O  22)     39.6661         0.009913   
    152. D(H  25,C  18,C  17,C  16)    -83.1108         0.009913   
    153. D(H  25,C  18,C  17,O  22)    160.0503         0.009913   
    154. D(H  25,C  18,C  17,H  23)     38.4661         0.009913   
    155. D(H  27,C  19,C  18,H  25)   -143.4293         0.009791   
    156. D(O  20,C  19,C  18,H  24)   -139.9570         0.009791   
    157. D(O  20,C  19,C  18,H  25)     99.4090         0.009791   
    158. D(H  26,C  19,C  18,C  17)   -137.7811         0.009791   
    159. D(H  26,C  19,C  18,H  24)    100.4778         0.009791   
    160. D(H  26,C  19,C  18,H  25)    -20.1562         0.009791   
    161. D(H  27,C  19,C  18,C  17)     98.9458         0.009791   
    162. D(O  20,C  19,C  18,C  17)    -18.2158         0.009791 C 
    163. D(H  27,C  19,C  18,H  24)    -22.7953         0.009791   
    164. D(C  19,O  20,C  16,C  12)    -90.0841         0.014131   
    165. D(C  19,O  20,C  16,C  17)     29.5286         0.014131 C 
    166. D(C  19,O  20,C  16,H  21)    151.2779         0.014131   
    167. D(C  16,O  20,C  19,C  18)     -6.8148         0.012917 C 
    168. D(C  16,O  20,C  19,H  26)    114.8645         0.012917   
    169. D(C  16,O  20,C  19,H  27)   -127.3949         0.012917   
    170. D(H  28,O  22,C  17,C  16)    -55.8192         0.007751   
    171. D(H  28,O  22,C  17,C  18)     55.7682         0.007751   
    172. D(H  28,O  22,C  17,H  23)   -179.9653         0.007751   
    -----------------------------------------------------------------

Number of atoms                         .... 29
Number of degrees of freedom            .... 172

Time needed for optimization step       :    15.50 sec

         *************************************************************
         *                GEOMETRY OPTIMIZATION CYCLE   1            *
         *************************************************************
---------------------------------
CARTESIAN COORDINATES (ANGSTROEM)
---------------------------------
  C    -21.048021   26.221860   46.251072
  C    -20.360951   27.557794   45.943911
  C    -20.328964   28.221999   47.340818
  C    -20.110043   27.022121   48.295986
  O    -20.473071   25.807034   47.535148
  H    -20.833031   25.427769   45.533170
  H    -19.343948   27.381697   45.575964
  H    -20.897905   28.156715   45.200815
  H    -19.542935   28.977979   47.433735
  H    -21.288949   28.710070   47.547721
  H    -20.733066   27.082270   49.194960
  H    -19.064056   26.913118   48.597030
  C    -23.352954   26.471984   45.025971
  H    -22.700907   26.116981   44.218010
  H    -24.244960   25.832990   45.053916
  O    -22.586013   26.393983   46.375005
  C    -23.816030   27.914968   44.681005
  C    -22.618071   28.844044   44.455087
  C    -22.197985   28.469119   43.014092
  C    -23.549938   28.165067   42.322025
  O    -24.531971   27.930974   43.401973
  H    -24.517078   28.256904   45.444990
  O    -23.075159   30.327016   44.525120
  H    -21.815094   28.697064   45.185116
  H    -21.643009   29.268168   42.513144
  H    -21.560935   27.577155   43.029088
  H    -23.501861   27.278093   41.680995
  H    -23.914961   29.009068   41.730039
  H    -23.881138   30.499995   43.802092

----------------------------
CARTESIAN COORDINATES (A.U.)
----------------------------
  NO LB      ZA    FRAG     MASS         X           Y           Z
   0 C     6.0000    0    12.011  -39.774995   49.552134   87.401860
   1 C     6.0000    0    12.011  -38.476620   52.076684   86.821410
   2 C     6.0000    0    12.011  -38.416175   53.331849   89.461181
   3 C     6.0000    0    12.011  -38.002474   51.064408   91.266187
   4 O     8.0000    0    15.999  -38.688497   48.768228   89.828412
   5 H     1.0000    0     1.008  -39.368723   48.051520   86.045221
   6 H     1.0000    0     1.008  -36.554765   51.743909   86.126090
   7 H     1.0000    0     1.008  -39.491317   53.208480   85.417161
   8 H     1.0000    0     1.008  -36.930795   54.760445   89.636768
   9 H     1.0000    0     1.008  -40.230283   54.254170   89.852172
  10 H     1.0000    0     1.008  -39.179816   51.178073   92.965002
  11 H     1.0000    0     1.008  -36.025845   50.858422   91.835077
  12 C     6.0000    0    12.011  -44.130687   50.024800   85.086755
  13 H     1.0000    0     1.008  -42.898497   49.353942   83.559930
  14 H     1.0000    0     1.008  -45.816334   48.817277   85.139562
  15 O     8.0000    0    15.999  -42.681378   49.877399   87.636058
  16 C     6.0000    0    12.011  -45.005774   52.751644   84.434864
  17 C     6.0000    0    12.011  -42.741960   54.507344   84.007940
  18 C     6.0000    0    12.011  -41.948112   53.798838   81.284854
  19 C     6.0000    0    12.011  -44.502934   53.224264   79.977036
  20 O     8.0000    0    15.999  -46.358706   52.781892   82.017843
  21 H     1.0000    0     1.008  -46.330562   53.397809   85.878586
  22 O     8.0000    0    15.999  -43.605731   57.309754   84.140283
  23 H     1.0000    0     1.008  -41.224553   54.229591   85.387494
  24 H     1.0000    0     1.008  -40.899359   55.308822   80.338199
  25 H     1.0000    0     1.008  -40.744262   52.113270   81.313192
  26 H     1.0000    0     1.008  -44.412082   51.548125   78.765666
  27 H     1.0000    0     1.008  -45.192726   54.819194   78.858345
  28 H     1.0000    0     1.008  -45.128810   57.636638   82.773957

--------------------------------
INTERNAL COORDINATES (ANGSTROEM)
--------------------------------
 C      0   0   0     0.000000000000     0.00000000     0.00000000
 C      1   0   0     1.533334275362     0.00000000     0.00000000
 C      2   1   0     1.547103422529   101.67907390     0.00000000
 C      3   2   1     1.549188819996   103.12737509    35.02687180
 O      1   2   3     1.466801281701   104.24948604   319.98542309
 H      1   2   3     1.091872245274   114.43876658   203.42640133
 H      2   1   3     1.095759553917   110.06782188   117.34000099
 H      2   1   3     1.095088580892   113.12442239   238.72597460
 H      3   2   1     1.094523183857   112.83161078   156.54780790
 H      3   2   1     1.096628013503   110.07982737   276.98070077
 H      4   3   2     1.095413164062   112.52534669   222.25678475
 H      4   3   2     1.093891219455   112.45670684    98.86663270
 C      1   2   3     2.622241407651   102.54679183   111.80818423
 H     13   1   2     1.097266148207    77.92697898    84.81073932
 H     13   1   2     1.097619697345   130.31055228   188.62215056
 O      1   2   3     1.552547583812   111.30349807    79.08752829
 C     13   1   2     1.554233894882   117.00500173   340.25550574
 C     17  13   1     1.532749490295   111.26095608    29.16893812
 C     18  17  13     1.547095989265   101.68962050    79.09607744
 C     19  18  17     1.548929953226   103.10485216    35.00220742
 O     17  13   1     1.465862544716   110.44566454   144.46844018
 H     17  13   1     1.091815460598   109.07216668   261.87764338
 O     18  17  13     1.553395635374   110.00160160   196.43110755
 H      8   2   1     1.064304937506   135.25350075    70.14632059
 H     19  18  17     1.094270076352   112.77705788   156.50503863
 H     19  18  17     1.096201623790   110.01377307   276.88920164
 H     20  19  18     1.095424118778   112.46387597   222.21895491
 H     20  19  18     1.093629279052   112.43848719    98.94583330
 H     23  18  17     1.096491678035   109.70434379   304.18090858

---------------------------
INTERNAL COORDINATES (A.U.)
---------------------------
 C      0   0   0     0.000000000000     0.00000000     0.00000000
 C      1   0   0     2.897581852189     0.00000000     0.00000000
 C      2   1   0     2.923601769431   101.67907390     0.00000000
 C      3   2   1     2.927542599525   103.12737509    35.02687180
 O      1   2   3     2.771852715300   104.24948604   319.98542309
 H      1   2   3     2.063339516798   114.43876658   203.42640133
 H      2   1   3     2.070685465531   110.06782188   117.34000099
 H      2   1   3     2.069417510270   113.12442239   238.72597460
 H      3   2   1     2.068349064717   112.83161078   156.54780790
 H      3   2   1     2.072326616307   110.07982737   276.98070077
 H      4   3   2     2.070030883569   112.52534669   222.25678475
 H      4   3   2     2.067154825070   112.45670684    98.86663270
 C      1   2   3     4.955318117489   102.54679183   111.80818423
 H     13   1   2     2.073532516133    77.92697898    84.81073932
 H     13   1   2     2.074200627180   130.31055228   188.62215056
 O      1   2   3     2.933889743286   111.30349807    79.08752829
 C     13   1   2     2.937076409385   117.00500173   340.25550574
 C     17  13   1     2.896476768565   111.26095608    29.16893812
 C     18  17  13     2.923587722599   101.68962050    79.09607744
 C     19  18  17     2.927053412224   103.10485216    35.00220742
 O     17  13   1     2.770078759485   110.44566454   144.46844018
 H     17  13   1     2.063232209311   109.07216668   261.87764338
 O     18  17  13     2.935492328486   110.00160160   196.43110755
 H      8   2   1     2.011244854867   135.25350075    70.14632059
 H     19  18  17     2.067870760851   112.77705788   156.50503863
 H     19  18  17     2.071520856523   110.01377307   276.88920164
 H     20  19  18     2.070051584982   112.46387597   222.21895491
 H     20  19  18     2.066659829446   112.43848719    98.94583330
 H     23  18  17     2.072068979610   109.70434379   304.18090858

---------------------
BASIS SET INFORMATION
---------------------
There are 3 groups of distinct atoms

 Group   1 Type C   : 10s4p contracted to 3s2p pattern {631/31}
 Group   2 Type O   : 10s4p contracted to 3s2p pattern {631/31}
 Group   3 Type H   : 4s contracted to 2s pattern {31}

Atom   0C    basis set group =>   1
Atom   1C    basis set group =>   1
Atom   2C    basis set group =>   1
Atom   3C    basis set group =>   1
Atom   4O    basis set group =>   2
Atom   5H    basis set group =>   3
Atom   6H    basis set group =>   3
Atom   7H    basis set group =>   3
Atom   8H    basis set group =>   3
Atom   9H    basis set group =>   3
Atom  10H    basis set group =>   3
Atom  11H    basis set group =>   3
Atom  12C    basis set group =>   1
Atom  13H    basis set group =>   3
Atom  14H    basis set group =>   3
Atom  15O    basis set group =>   2
Atom  16C    basis set group =>   1
Atom  17C    basis set group =>   1
Atom  18C    basis set group =>   1
Atom  19C    basis set group =>   1
Atom  20O    basis set group =>   2
Atom  21H    basis set group =>   3
Atom  22O    basis set group =>   2
Atom  23H    basis set group =>   3
Atom  24H    basis set group =>   3
Atom  25H    basis set group =>   3
Atom  26H    basis set group =>   3
Atom  27H    basis set group =>   3
Atom  28H    basis set group =>   3
------------------------------------------------------------------------------
                           ORCA GTO INTEGRAL CALCULATION
------------------------------------------------------------------------------

                         BASIS SET STATISTICS AND STARTUP INFO

 # of primitive gaussian shells          ...  246
 # of primitive gaussian functions       ...  350
 # of contracted shells                  ...   97
 # of contracted basis functions         ...  149
 Highest angular momentum                ...    1
 Maximum contraction depth               ...    6
 Integral package used                   ... LIBINT
 Integral threshhold            Thresh   ...  2.500e-11
 Primitive cut-off              TCut     ...  2.500e-12


------------------------------ INTEGRAL EVALUATION ----------------------------


 * One electron integrals 
 Pre-screening matrix                    ... done
 Shell pair data                         ... done (   0.002 sec)

-------------------------------------------------------------------------------
                                 ORCA SCF
-------------------------------------------------------------------------------

------------
SCF SETTINGS
------------
Hamiltonian:
 Density Functional     Method          .... DFT(GTOs)
 Exchange Functional    Exchange        .... B88
   X-Alpha parameter    XAlpha          ....  0.666667
   Becke's b parameter  XBeta           ....  0.004200
 Correlation Functional Correlation     .... LYP
 LDA part of GGA corr.  LDAOpt          .... VWN-5
 Gradients option       PostSCFGGA      .... off
 Hybrid DFT is turned on
   Fraction HF Exchange ScalHFX         ....  0.200000
   Scaling of DF-GGA-X  ScalDFX         ....  0.720000
   Scaling of DF-GGA-C  ScalDFC         ....  0.810000
   Scaling of DF-LDA-C  ScalLDAC        ....  1.000000
   Perturbative correction              ....  0.000000
   Density functional embedding theory  .... OFF
   NL short-range parameter             ....  4.800000


General Settings:
 Integral files         IntName         .... project_8050/ensemble_195_255
 Hartree-Fock type      HFTyp           .... RHF
 Total Charge           Charge          ....    0
 Multiplicity           Mult            ....    1
 Number of Electrons    NEL             ....  102
 Basis Dimension        Dim             ....  149
 Nuclear Repulsion      ENuc            ....    886.7827885892 Eh

Convergence Acceleration:
 DIIS                   CNVDIIS         .... on
   Start iteration      DIISMaxIt       ....    12
   Startup error        DIISStart       ....  0.200000
   # of expansion vecs  DIISMaxEq       ....     5
   Bias factor          DIISBfac        ....   1.050
   Max. coefficient     DIISMaxC        ....  10.000
 Newton-Raphson         CNVNR           .... off
 SOSCF                  CNVSOSCF        .... on
   Start iteration      SOSCFMaxIt      ....   150
   Startup grad/error   SOSCFStart      ....  0.003300
 Level Shifting         CNVShift        .... on
   Level shift para.    LevelShift      ....    0.2500
   Turn off err/grad.   ShiftErr        ....    0.0010
 Zerner damping         CNVZerner       .... off
 Static damping         CNVDamp         .... on
   Fraction old density DampFac         ....    0.7000
   Max. Damping (<1)    DampMax         ....    0.9800
   Min. Damping (>=0)   DampMin         ....    0.0000
   Turn off err/grad.   DampErr         ....    0.1000
 Fernandez-Rico         CNVRico         .... off

SCF Procedure:
 Maximum # iterations   MaxIter         ....   125
 SCF integral mode      SCFMode         .... Direct
   Integral package                     .... LIBINT
 Reset frequency        DirectResetFreq ....    20
 Integral Threshold     Thresh          ....  2.500e-11 Eh
 Primitive CutOff       TCut            ....  2.500e-12 Eh

Convergence Tolerance:
 Convergence Check Mode ConvCheckMode   .... Total+1el-Energy
 Convergence forced     ConvForced      .... 0
 Energy Change          TolE            ....  1.000e-08 Eh
 1-El. energy change                    ....  1.000e-05 Eh
 Orbital Gradient       TolG            ....  1.000e-05
 Orbital Rotation angle TolX            ....  1.000e-05
 DIIS Error             TolErr          ....  5.000e-07


Diagonalization of the overlap matrix:
Smallest eigenvalue                        ... 3.994e-03
Time for diagonalization                   ...    0.006 sec
Threshold for overlap eigenvalues          ... 1.000e-08
Number of eigenvalues below threshold      ... 0
Time for construction of square roots      ...    8.726 sec
Total time needed                          ...   10.317 sec

-------------------
DFT GRID GENERATION
-------------------

General Integration Accuracy     IntAcc      ...  4.340
Radial Grid Type                 RadialGrid  ... Gauss-Chebyshev
Angular Grid (max. acc.)         AngularGrid ... Lebedev-110
Angular grid pruning method      GridPruning ... 3 (G Style)
Weight generation scheme         WeightScheme... Becke
Basis function cutoff            BFCut       ...    1.0000e-11
Integration weight cutoff        WCut        ...    1.0000e-14
Grids for H and He will be reduced by one unit

# of grid points (after initial pruning)     ...  34472 (   0.0 sec)
# of grid points (after weights+screening)   ...  30856 (   0.2 sec)
nearest neighbour list constructed           ...    0.0 sec
Grid point re-assignment to atoms done       ...    0.0 sec
Grid point division into batches done        ...    0.0 sec
Reduced shell lists constructed in    0.5 sec

Total number of grid points                  ...    30856
Total number of batches                      ...      493
Average number of points per batch           ...       62
Average number of grid points per atom       ...     1064
Average number of shells per batch           ...    61.79 (63.70%)
Average number of basis functions per batch  ...    99.94 (67.07%)
Average number of large shells per batch     ...    44.39 (71.84%)
Average number of large basis fcns per batch ...    73.28 (73.33%)
Maximum spatial batch extension              ...  22.06, 21.73, 20.14 au
Average spatial batch extension              ...   3.31,  3.35,  3.32 au

Time for grid setup =    2.312 sec

------------------------------
INITIAL GUESS: MODEL POTENTIAL
------------------------------
Loading Hartree-Fock densities                     ... done
Calculating cut-offs                               ... done
Setting up the integral package                    ... done
Initializing the effective Hamiltonian             ... done
Starting the Coulomb interaction                   ... done (   0.5 sec)
Reading the grid                                   ... done
Mapping shells                                     ... done
Starting the XC term evaluation                    ... done (   0.5 sec)
  promolecular density results
     # of electrons  =    102.004070035
     EX              =    -83.704886091
     EC              =     -3.467048964
     EX+EC           =    -87.171935055
Transforming the Hamiltonian                       ... done (   0.9 sec)
Diagonalizing the Hamiltonian                      ... done (   0.0 sec)
Back transforming the eigenvectors                 ... done (   0.0 sec)
Now organizing SCF variables                       ... done
                      ------------------
                      INITIAL GUESS DONE (  14.0 sec)
                      ------------------
--------------
SCF ITERATIONS
--------------
ITER       Energy         Delta-E        Max-DP      RMS-DP      [F,P]     Damp
               ***  Starting incremental Fock matrix formation  ***
  0   -652.5044673519   0.000000000000 0.07700288  0.00307530  0.2400438 0.7000
  1   -652.6402415766  -0.135774224715 0.04240453  0.00210159  0.0928698 0.7000
                               ***Turning on DIIS***
  2   -652.6912997571  -0.051058180530 0.05829521  0.00337078  0.0318452 0.0000
  3   -652.7762561014  -0.084956344279 0.03094242  0.00138290  0.0510348 0.0000
  4   -652.7927158622  -0.016459760746 0.00895908  0.00043372  0.0141547 0.0000
  5   -652.7937144516  -0.000998589438 0.00266019  0.00013186  0.0036155 0.0000
                      *** Initiating the SOSCF procedure ***
                           *** Shutting down DIIS ***
                      *** Re-Reading the Fockian *** 
                      *** Removing any level shift *** 
ITER      Energy       Delta-E        Grad      Rot      Max-DP    RMS-DP
  6   -652.79377954  -0.0000650924  0.000201  0.000201  0.000972  0.000055
               *** Restarting incremental Fock matrix formation ***
  7   -652.79378238  -0.0000028323  0.000088  0.000190  0.000821  0.000031
  8   -652.79378090   0.0000014809  0.000142  0.000149  0.000428  0.000019
  9   -652.79378351  -0.0000026147  0.000022  0.000041  0.000173  0.000006
 10   -652.79378344   0.0000000694  0.000034  0.000025  0.000114  0.000004
 11   -652.79378357  -0.0000001270  0.000003  0.000005  0.000021  0.000001
 12   -652.79378357   0.0000000009  0.000006  0.000003  0.000013  0.000000
                  ***Gradient check signals convergence***
              ***Rediagonalizing the Fockian in SOSCF/NRSCF***

               *****************************************************
               *                     SUCCESS                       *
               *           SCF CONVERGED AFTER  13 CYCLES          *
               *****************************************************

Setting up the final grid:

General Integration Accuracy     IntAcc      ...  4.670
Radial Grid Type                 RadialGrid  ... Gauss-Chebyshev
Angular Grid (max. acc.)         AngularGrid ... Lebedev-302
Angular grid pruning method      GridPruning ... 3 (G Style)
Weight generation scheme         WeightScheme... Becke
Basis function cutoff            BFCut       ...    1.0000e-11
Integration weight cutoff        WCut        ...    1.0000e-14
Grids for H and He will be reduced by one unit

# of grid points (after initial pruning)     ... 135060 (   0.1 sec)
# of grid points (after weights+screening)   ... 118232 (   0.8 sec)
nearest neighbour list constructed           ...    0.0 sec
Grid point re-assignment to atoms done       ...    0.0 sec
Grid point division into batches done        ...    0.4 sec
Reduced shell lists constructed in    1.5 sec

Total number of grid points                  ...   118232
Total number of batches                      ...     1866
Average number of points per batch           ...       63
Average number of grid points per atom       ...     4077
Average number of shells per batch           ...    56.73 (58.49%)
Average number of basis functions per batch  ...    92.02 (61.76%)
Average number of large shells per batch     ...    39.70 (69.98%)
Average number of large basis fcns per batch ...    65.71 (71.41%)
Maximum spatial batch extension              ...  21.27, 18.61, 18.88 au
Average spatial batch extension              ...   2.22,  2.20,  2.21 au

Final grid set up in    3.8 sec
Final integration                            ... done (   9.1 sec)
Change in XC energy                          ...     0.000665019
Integrated number of electrons               ...   101.999919632
Previous integrated no of electrons          ...   102.008064195

----------------
TOTAL SCF ENERGY
----------------

Total Energy       :         -652.79311855 Eh          -17763.40383 eV

Components:
Nuclear Repulsion  :          886.78278859 Eh           24130.58645 eV
Electronic Energy  :        -1539.57590714 Eh          -41893.99028 eV
One Electron Energy:        -2650.72546730 Eh          -72129.90698 eV
Two Electron Energy:         1111.14956016 Eh           30235.91670 eV

Virial components:
Potential Energy   :        -1301.90653296 Eh          -35426.67782 eV
Kinetic Energy     :          649.11341441 Eh           17663.27399 eV
Virial Ratio       :            2.00566882


DFT components:
N(Alpha)           :       50.999959816067 electrons
N(Beta)            :       50.999959816067 electrons
N(Total)           :      101.999919632133 electrons
E(X)               :      -67.620232833475 Eh       
E(C)               :       -4.076192881562 Eh       
E(XC)              :      -71.696425715037 Eh       
DFET-embed. en.    :        0.000000000000 Eh       

---------------
SCF CONVERGENCE
---------------

  Last Energy change         ...   -1.5245e-09  Tolerance :   1.0000e-08
  Last MAX-Density change    ...    3.2540e-06  Tolerance :   1.0000e-07
  Last RMS-Density change    ...    1.2267e-07  Tolerance :   5.0000e-09
  Last Orbital Gradient      ...    4.0083e-07  Tolerance :   1.0000e-05
  Last Orbital Rotation      ...    6.2761e-07  Tolerance :   1.0000e-05

             **** THE GBW FILE WAS UPDATED (project_8050/ensemble_195_255.gbw) ****
             **** DENSITY FILE WAS UPDATED (project_8050/ensemble_195_255.scfp) ****
             **** ENERGY FILE WAS UPDATED (project_8050/ensemble_195_255.en.tmp) ****
             **** THE GBW FILE WAS UPDATED (project_8050/ensemble_195_255.gbw) ****
             **** DENSITY FILE WAS UPDATED (project_8050/ensemble_195_255.scfp) ****
----------------
ORBITAL ENERGIES
----------------

  NO   OCC          E(Eh)            E(eV) 
   0   2.0000     -19.154341      -521.2161 
   1   2.0000     -19.153053      -521.1811 
   2   2.0000     -19.147845      -521.0393 
   3   2.0000     -19.146482      -521.0023 
   4   2.0000     -10.289932      -280.0033 
   5   2.0000     -10.242494      -278.7124 
   6   2.0000     -10.241697      -278.6907 
   7   2.0000     -10.240762      -278.6653 
   8   2.0000     -10.238821      -278.6125 
   9   2.0000     -10.229475      -278.3582 
  10   2.0000     -10.202696      -277.6295 
  11   2.0000     -10.191827      -277.3337 
  12   2.0000     -10.190989      -277.3109 
  13   2.0000      -1.039620       -28.2895 
  14   2.0000      -1.036858       -28.2144 
  15   2.0000      -0.968496       -26.3541 
  16   2.0000      -0.965730       -26.2788 
  17   2.0000      -0.801695       -21.8152 
  18   2.0000      -0.788902       -21.4671 
  19   2.0000      -0.770356       -20.9625 
  20   2.0000      -0.738738       -20.1021 
  21   2.0000      -0.675818       -18.3899 
  22   2.0000      -0.624890       -17.0041 
  23   2.0000      -0.607284       -16.5250 
  24   2.0000      -0.599038       -16.3007 
  25   2.0000      -0.579004       -15.7555 
  26   2.0000      -0.529468       -14.4076 
  27   2.0000      -0.515970       -14.0403 
  28   2.0000      -0.504441       -13.7265 
  29   2.0000      -0.486138       -13.2285 
  30   2.0000      -0.469281       -12.7698 
  31   2.0000      -0.454878       -12.3779 
  32   2.0000      -0.451624       -12.2893 
  33   2.0000      -0.432896       -11.7797 
  34   2.0000      -0.428157       -11.6508 
  35   2.0000      -0.420359       -11.4386 
  36   2.0000      -0.411548       -11.1988 
  37   2.0000      -0.391010       -10.6399 
  38   2.0000      -0.384303       -10.4574 
  39   2.0000      -0.372711       -10.1420 
  40   2.0000      -0.370644       -10.0857 
  41   2.0000      -0.358323        -9.7505 
  42   2.0000      -0.340616        -9.2686 
  43   2.0000      -0.329801        -8.9743 
  44   2.0000      -0.320295        -8.7157 
  45   2.0000      -0.311707        -8.4820 
  46   2.0000      -0.302501        -8.2315 
  47   2.0000      -0.276531        -7.5248 
  48   2.0000      -0.266649        -7.2559 
  49   2.0000      -0.263236        -7.1630 
  50   2.0000      -0.243443        -6.6244 
  51   0.0000       0.032100         0.8735 
  52   0.0000       0.049529         1.3478 
  53   0.0000       0.072579         1.9750 
  54   0.0000       0.086915         2.3651 
  55   0.0000       0.091148         2.4803 
  56   0.0000       0.106542         2.8992 
  57   0.0000       0.113922         3.1000 
  58   0.0000       0.118437         3.2228 
  59   0.0000       0.126543         3.4434 
  60   0.0000       0.132651         3.6096 
  61   0.0000       0.138318         3.7638 
  62   0.0000       0.142671         3.8823 
  63   0.0000       0.147454         4.0124 
  64   0.0000       0.152496         4.1496 
  65   0.0000       0.161073         4.3830 
  66   0.0000       0.170025         4.6266 
  67   0.0000       0.174821         4.7571 
  68   0.0000       0.183696         4.9986 
  69   0.0000       0.193613         5.2685 
  70   0.0000       0.204793         5.5727 
  71   0.0000       0.206489         5.6189 
  72   0.0000       0.222667         6.0591 
  73   0.0000       0.235705         6.4139 
  74   0.0000       0.248714         6.7678 
  75   0.0000       0.251961         6.8562 
  76   0.0000       0.261540         7.1169 
  77   0.0000       0.275743         7.5033 
  78   0.0000       0.282139         7.6774 
  79   0.0000       0.295498         8.0409 
  80   0.0000       0.324055         8.8180 
  81   0.0000       0.506534        13.7835 
  82   0.0000       0.522734        14.2243 
  83   0.0000       0.529628        14.4119 
  84   0.0000       0.552032        15.0216 
  85   0.0000       0.553843        15.0708 
  86   0.0000       0.558372        15.1941 
  87   0.0000       0.574397        15.6301 
  88   0.0000       0.587177        15.9779 
  89   0.0000       0.594548        16.1785 
  90   0.0000       0.606135        16.4938 
  91   0.0000       0.616431        16.7739 
  92   0.0000       0.622844        16.9484 
  93   0.0000       0.627385        17.0720 
  94   0.0000       0.644478        17.5371 
  95   0.0000       0.657596        17.8941 
  96   0.0000       0.664058        18.0699 
  97   0.0000       0.677425        18.4337 
  98   0.0000       0.699525        19.0351 
  99   0.0000       0.727365        19.7926 
 100   0.0000       0.739388        20.1198 
 101   0.0000       0.760943        20.7063 
 102   0.0000       0.783750        21.3269 
 103   0.0000       0.805763        21.9259 
 104   0.0000       0.812741        22.1158 
 105   0.0000       0.823242        22.4015 
 106   0.0000       0.846980        23.0475 
 107   0.0000       0.855444        23.2778 
 108   0.0000       0.870051        23.6753 
 109   0.0000       0.874998        23.8099 
 110   0.0000       0.885001        24.0821 
 111   0.0000       0.891988        24.2722 
 112   0.0000       0.892392        24.2832 
 113   0.0000       0.913822        24.8664 
 114   0.0000       0.925734        25.1905 
 115   0.0000       0.927600        25.2413 
 116   0.0000       0.938012        25.5246 
 117   0.0000       0.945608        25.7313 
 118   0.0000       0.956228        26.0203 
 119   0.0000       0.962382        26.1877 
 120   0.0000       0.983640        26.7662 
 121   0.0000       0.988225        26.8910 
 122   0.0000       1.012590        27.5540 
 123   0.0000       1.040805        28.3217 
 124   0.0000       1.063061        28.9274 
 125   0.0000       1.081977        29.4421 
 126   0.0000       1.109235        30.1838 
 127   0.0000       1.113044        30.2875 
 128   0.0000       1.147075        31.2135 
 129   0.0000       1.175335        31.9825 
 130   0.0000       1.200977        32.6803 
 131   0.0000       1.224301        33.3149 
 132   0.0000       1.296676        35.2843 
 133   0.0000       1.309648        35.6373 
 134   0.0000       1.332611        36.2622 
 135   0.0000       1.376843        37.4658 
 136   0.0000       1.393904        37.9301 
 137   0.0000       1.399018        38.0692 
 138   0.0000       1.427575        38.8463 
 139   0.0000       1.436604        39.0920 
 140   0.0000       1.548015        42.1236 
 141   0.0000       1.583894        43.1000 
 142   0.0000       1.628578        44.3159 
 143   0.0000       1.715656        46.6854 
 144   0.0000       1.764559        48.0161 
 145   0.0000       1.828111        49.7454 
 146   0.0000       1.919329        52.2276 
 147   0.0000       2.049256        55.7631 
 148   0.0000       2.105257        57.2870 

                    ********************************
                    * MULLIKEN POPULATION ANALYSIS *
                    ********************************

-----------------------
MULLIKEN ATOMIC CHARGES
-----------------------
   0 C :    0.299095
   1 C :   -0.274691
   2 C :   -0.307626
   3 C :   -0.001800
   4 O :   -0.498198
   5 H :    0.146685
   6 H :    0.144976
   7 H :    0.123539
   8 H :    0.148737
   9 H :    0.175277
  10 H :    0.157248
  11 H :    0.144462
  12 C :   -0.047631
  13 H :    0.121927
  14 H :    0.170382
  15 O :   -0.504067
  16 C :    0.079580
  17 C :    0.080725
  18 C :   -0.322056
  19 C :   -0.026585
  20 O :   -0.516078
  21 H :    0.177068
  22 O :   -0.602081
  23 H :    0.168634
  24 H :    0.168371
  25 H :    0.148847
  26 H :    0.150160
  27 H :    0.148853
  28 H :    0.346248
Sum of atomic charges:    0.0000000

--------------------------------
MULLIKEN REDUCED ORBITAL CHARGES
--------------------------------
  0 C s       :     3.227770  s :     3.227770
      pz      :     0.800934  p :     2.473136
      px      :     0.691348
      py      :     0.980854
  1 C s       :     3.313943  s :     3.313943
      pz      :     0.962955  p :     2.960748
      px      :     1.052629
      py      :     0.945164
  2 C s       :     3.321521  s :     3.321521
      pz      :     0.898919  p :     2.986105
      px      :     1.095403
      py      :     0.991782
  3 C s       :     3.263834  s :     3.263834
      pz      :     0.941700  p :     2.737966
      px      :     1.057767
      py      :     0.738499
  4 O s       :     3.949512  s :     3.949512
      pz      :     1.316725  p :     4.548686
      px      :     1.713142
      py      :     1.518820
  5 H s       :     0.853315  s :     0.853315
  6 H s       :     0.855024  s :     0.855024
  7 H s       :     0.876461  s :     0.876461
  8 H s       :     0.851263  s :     0.851263
  9 H s       :     0.824723  s :     0.824723
 10 H s       :     0.842752  s :     0.842752
 11 H s       :     0.855538  s :     0.855538
 12 C s       :     3.301178  s :     3.301178
      pz      :     0.763643  p :     2.746453
      px      :     0.990156
      py      :     0.992654
 13 H s       :     0.878073  s :     0.878073
 14 H s       :     0.829618  s :     0.829618
 15 O s       :     3.947847  s :     3.947847
      pz      :     1.431190  p :     4.556221
      px      :     1.256283
      py      :     1.868747
 16 C s       :     3.267420  s :     3.267420
      pz      :     0.791560  p :     2.653000
      px      :     0.922157
      py      :     0.939284
 17 C s       :     3.304131  s :     3.304131
      pz      :     0.953421  p :     2.615144
      px      :     0.984407
      py      :     0.677316
 18 C s       :     3.325908  s :     3.325908
      pz      :     0.948127  p :     2.996148
      px      :     0.969271
      py      :     1.078751
 19 C s       :     3.270245  s :     3.270245
      pz      :     0.848858  p :     2.756340
      px      :     0.818030
      py      :     1.089452
 20 O s       :     3.945105  s :     3.945105
      pz      :     1.165285  p :     4.570974
      px      :     1.545044
      py      :     1.860645
 21 H s       :     0.822932  s :     0.822932
 22 O s       :     3.955520  s :     3.955520
      pz      :     1.674682  p :     4.646562
      px      :     1.577811
      py      :     1.394068
 23 H s       :     0.831366  s :     0.831366
 24 H s       :     0.831629  s :     0.831629
 25 H s       :     0.851153  s :     0.851153
 26 H s       :     0.849840  s :     0.849840
 27 H s       :     0.851147  s :     0.851147
 28 H s       :     0.653752  s :     0.653752


                     *******************************
                     * LOEWDIN POPULATION ANALYSIS *
                     *******************************

----------------------
LOEWDIN ATOMIC CHARGES
----------------------
   0 C :    0.190079
   1 C :   -0.251009
   2 C :   -0.218465
   3 C :   -0.025676
   4 O :   -0.297288
   5 H :    0.102444
   6 H :    0.116682
   7 H :    0.132921
   8 H :    0.117645
   9 H :    0.121751
  10 H :    0.110740
  11 H :    0.103375
  12 C :   -0.047648
  13 H :    0.093543
  14 H :    0.124261
  15 O :   -0.364975
  16 C :    0.018989
  17 C :    0.016517
  18 C :   -0.244320
  19 C :   -0.036454
  20 O :   -0.323037
  21 H :    0.126445
  22 O :   -0.442902
  23 H :    0.143004
  24 H :    0.129339
  25 H :    0.111459
  26 H :    0.105568
  27 H :    0.103639
  28 H :    0.283371

-------------------------------
LOEWDIN REDUCED ORBITAL CHARGES
-------------------------------
  0 C s       :     2.978656  s :     2.978656
      pz      :     0.919225  p :     2.831266
      px      :     0.833511
      py      :     1.078530
  1 C s       :     2.984003  s :     2.984003
      pz      :     1.085812  p :     3.267006
      px      :     1.113937
      py      :     1.067257
  2 C s       :     2.971933  s :     2.971933
      pz      :     1.028065  p :     3.246532
      px      :     1.136687
      py      :     1.081781
  3 C s       :     2.983804  s :     2.983804
      pz      :     1.039578  p :     3.041872
      px      :     1.120078
      py      :     0.882216
  4 O s       :     3.607334  s :     3.607334
      pz      :     1.378399  p :     4.689954
      px      :     1.746474
      py      :     1.565080
  5 H s       :     0.897556  s :     0.897556
  6 H s       :     0.883318  s :     0.883318
  7 H s       :     0.867079  s :     0.867079
  8 H s       :     0.882355  s :     0.882355
  9 H s       :     0.878249  s :     0.878249
 10 H s       :     0.889260  s :     0.889260
 11 H s       :     0.896625  s :     0.896625
 12 C s       :     3.006718  s :     3.006718
      pz      :     0.885038  p :     3.040930
      px      :     1.063722
      py      :     1.092171
 13 H s       :     0.906457  s :     0.906457
 14 H s       :     0.875739  s :     0.875739
 15 O s       :     3.664652  s :     3.664652
      pz      :     1.490667  p :     4.700323
      px      :     1.320355
      py      :     1.889301
 16 C s       :     2.970607  s :     2.970607
      pz      :     0.912510  p :     3.010404
      px      :     1.028505
      py      :     1.069388
 17 C s       :     2.982840  s :     2.982840
      pz      :     1.078402  p :     3.000642
      px      :     1.079359
      py      :     0.842882
 18 C s       :     2.980792  s :     2.980792
      pz      :     1.059200  p :     3.263528
      px      :     1.078976
      py      :     1.125352
 19 C s       :     2.982987  s :     2.982987
      pz      :     0.967251  p :     3.053467
      px      :     0.951096
      py      :     1.135120
 20 O s       :     3.602454  s :     3.602454
      pz      :     1.241469  p :     4.720583
      px      :     1.598196
      py      :     1.880918
 21 H s       :     0.873555  s :     0.873555
 22 O s       :     3.694171  s :     3.694171
      pz      :     1.698813  p :     4.748730
      px      :     1.605778
      py      :     1.444140
 23 H s       :     0.856996  s :     0.856996
 24 H s       :     0.870661  s :     0.870661
 25 H s       :     0.888541  s :     0.888541
 26 H s       :     0.894432  s :     0.894432
 27 H s       :     0.896361  s :     0.896361
 28 H s       :     0.716629  s :     0.716629


                      *****************************
                      * MAYER POPULATION ANALYSIS *
                      *****************************

  NA   - Mulliken gross atomic population
  ZA   - Total nuclear charge
  QA   - Mulliken gross atomic charge
  VA   - Mayer's total valence
  BVA  - Mayer's bonded valence
  FA   - Mayer's free valence

  ATOM       NA         ZA         QA         VA         BVA        FA
  0 C      5.7009     6.0000     0.2991     3.6574     3.6574     0.0000
  1 C      6.2747     6.0000    -0.2747     3.6810     3.6810     0.0000
  2 C      6.3076     6.0000    -0.3076     3.7444     3.7444     0.0000
  3 C      6.0018     6.0000    -0.0018     3.6501     3.6501     0.0000
  4 O      8.4982     8.0000    -0.4982     1.8330     1.8330    -0.0000
  5 H      0.8533     1.0000     0.1467     0.9295     0.9295    -0.0000
  6 H      0.8550     1.0000     0.1450     0.9352     0.9352     0.0000
  7 H      0.8765     1.0000     0.1235     0.9295     0.9295    -0.0000
  8 H      0.8513     1.0000     0.1487     0.9360     0.9360     0.0000
  9 H      0.8247     1.0000     0.1753     0.9304     0.9304    -0.0000
 10 H      0.8428     1.0000     0.1572     0.9248     0.9248    -0.0000
 11 H      0.8555     1.0000     0.1445     0.9282     0.9282    -0.0000
 12 C      6.0476     6.0000    -0.0476     3.6416     3.6416     0.0000
 13 H      0.8781     1.0000     0.1219     0.9396     0.9396     0.0000
 14 H      0.8296     1.0000     0.1704     0.9295     0.9295    -0.0000
 15 O      8.5041     8.0000    -0.5041     1.7853     1.7853     0.0000
 16 C      5.9204     6.0000     0.0796     3.5656     3.5656    -0.0000
 17 C      5.9193     6.0000     0.0807     3.5970     3.5970    -0.0000
 18 C      6.3221     6.0000    -0.3221     3.6845     3.6845     0.0000
 19 C      6.0266     6.0000    -0.0266     3.6602     3.6602     0.0000
 20 O      8.5161     8.0000    -0.5161     1.7704     1.7704     0.0000
 21 H      0.8229     1.0000     0.1771     0.9313     0.9313     0.0000
 22 O      8.6021     8.0000    -0.6021     1.7560     1.7560     0.0000
 23 H      0.8314     1.0000     0.1686     0.9215     0.9215    -0.0000
 24 H      0.8316     1.0000     0.1684     0.9382     0.9382     0.0000
 25 H      0.8512     1.0000     0.1488     0.9333     0.9333     0.0000
 26 H      0.8498     1.0000     0.1502     0.9267     0.9267     0.0000
 27 H      0.8511     1.0000     0.1489     0.9291     0.9291    -0.0000
 28 H      0.6538     1.0000     0.3462     0.8501     0.8501    -0.0000

  Mayer bond orders larger than 0.100000
B(  0-C ,  1-C ) :   0.9234 B(  0-C ,  4-O ) :   0.9408 B(  0-C ,  5-H ) :   0.9199 
B(  0-C , 15-O ) :   0.8322 B(  1-C ,  2-C ) :   0.9481 B(  1-C ,  6-H ) :   0.9291 
B(  1-C ,  7-H ) :   0.8539 B(  2-C ,  3-C ) :   0.9499 B(  2-C ,  8-H ) :   0.9437 
B(  2-C ,  9-H ) :   0.9369 B(  3-C ,  4-O ) :   0.8334 B(  3-C , 10-H ) :   0.9330 
B(  3-C , 11-H ) :   0.9384 B( 12-C , 13-H ) :   0.9207 B( 12-C , 14-H ) :   0.9275 
B( 12-C , 15-O ) :   0.8617 B( 12-C , 16-C ) :   0.8699 B( 16-C , 17-C ) :   0.9071 
B( 16-C , 20-O ) :   0.8426 B( 16-C , 21-H ) :   0.9255 B( 17-C , 18-C ) :   0.9099 
B( 17-C , 22-O ) :   0.8810 B( 17-C , 23-H ) :   0.8354 B( 18-C , 19-C ) :   0.9341 
B( 18-C , 24-H ) :   0.9364 B( 18-C , 25-H ) :   0.9241 B( 19-C , 20-O ) :   0.8465 
B( 19-C , 26-H ) :   0.9343 B( 19-C , 27-H ) :   0.9366 B( 22-O , 28-H ) :   0.8096 


-------
TIMINGS
-------

Total SCF time: 0 days 0 hours 7 min 7 sec 

Total time                  ....     427.909 sec
Sum of individual times     ....     342.283 sec  ( 80.0%)

Fock matrix formation       ....     317.158 sec  ( 74.1%)
  XC integration            ....     116.960 sec  ( 36.9% of F)
    Basis function eval.    ....       3.692 sec  (  3.2% of XC)
    Density eval.           ....       3.384 sec  (  2.9% of XC)
    XC-Functional eval.     ....       4.684 sec  (  4.0% of XC)
    XC-Potential eval.      ....       1.676 sec  (  1.4% of XC)
Diagonalization             ....       2.175 sec  (  0.5%)
Density matrix formation    ....       0.012 sec  (  0.0%)
Population analysis         ....       1.455 sec  (  0.3%)
Initial guess               ....      11.666 sec  (  2.7%)
Orbital Transformation      ....       0.000 sec  (  0.0%)
Orbital Orthonormalization  ....       0.000 sec  (  0.0%)
DIIS solution               ....       2.677 sec  (  0.6%)
SOSCF solution              ....       1.041 sec  (  0.2%)
Grid generation             ....       6.099 sec  (  1.4%)

-------------------------   --------------------
FINAL SINGLE POINT ENERGY      -652.793118549443
-------------------------   --------------------

------------------------------------------------------------------------------
                         ORCA SCF GRADIENT CALCULATION
------------------------------------------------------------------------------

Gradient of the Kohn-Sham DFT energy:
Kohn-Sham wavefunction type      ... RKS
Hartree-Fock exchange scaling    ...    0.200
Number of operators              ...    1
Number of atoms                  ...   29
Basis set dimensions             ...  149
Integral neglect threshold       ... 2.5e-11
Integral primitive cutoff        ... 2.5e-12

Nuclear repulsion gradient       ... done
One Electron Gradient            ... done
Pre-screening matrix             ... done
Starting the two electron gradient:
Two electron gradient done
Exchange-correlation gradient    ... done

------------------
CARTESIAN GRADIENT
------------------

   1   C   :    0.009758787    0.001416967   -0.006094225
   2   C   :   -0.011327186    0.007554870   -0.008965784
   3   C   :   -0.000725069   -0.000596313   -0.000616676
   4   C   :    0.000914972   -0.005808808   -0.003800783
   5   O   :    0.019690780   -0.007420146    0.021590597
   6   H   :    0.004390231    0.002346208   -0.001040918
   7   H   :   -0.000933190    0.002633334   -0.000873686
   8   H   :   -0.043176698    0.026743552   -0.013745589
   9   H   :   -0.000366814    0.000775026    0.000285903
  10   H   :    0.000048337    0.001062956    0.000299251
  11   H   :   -0.000353810    0.001120331    0.001722956
  12   H   :   -0.000278992    0.001080448    0.000983292
  13   C   :   -0.013036278   -0.002336759   -0.011294217
  14   H   :   -0.000745083    0.004427912   -0.002212788
  15   H   :   -0.006348115    0.001653378   -0.008927386
  16   O   :   -0.008015827   -0.000676462    0.025578948
  17   C   :   -0.010320573    0.005136369   -0.015387937
  18   C   :    0.036992844   -0.039320854    0.015276287
  19   C   :    0.003261207   -0.004068014    0.000249670
  20   C   :   -0.002908326    0.002098085    0.002802083
  21   O   :   -0.000992886    0.004116324   -0.000450545
  22   H   :   -0.002452078   -0.004061089    0.000629501
  23   O   :    0.030764928    0.019001887    0.039864218
  24   H   :    0.046454582   -0.033380288    0.010648768
  25   H   :    0.000500475   -0.000699200   -0.002710465
  26   H   :   -0.001304498   -0.000017520    0.000700985
  27   H   :    0.000524103   -0.000775035    0.000153159
  28   H   :    0.000156350   -0.000167316    0.000611091
  29   H   :   -0.050172174    0.018160156   -0.045275710

Difference to translation invariance:
           :    0.0000000000   -0.0000000001   -0.0000000001

Norm of the cartesian gradient     ...    0.1419087345
RMS gradient                       ...    0.0152142133
MAX gradient                       ...    0.0501721743

-------
TIMINGS
-------

Total SCF gradient time            ...       36.082 sec

One electron gradient       ....       0.348 sec  (  1.0%)
Prescreening matrices       ....       0.049 sec  (  0.1%)
Two electron gradient       ....      17.549 sec  ( 48.6%)
XC gradient                 ....       8.714 sec  ( 24.2%)
------------------------------------------------------------------------------
                         ORCA GEOMETRY RELAXATION STEP
------------------------------------------------------------------------------

Reading the OPT-File                    .... done
Getting information on internals        .... done
Copying old internal coords+grads       .... done
Making the new internal coordinates     .... (new redundants).... done
Validating the new internal coordinates .... (new redundants).... done
Calculating the B-matrix                .... done
Calculating the G,G- and P matrices     .... done
Transforming gradient to internals      .... done
Projecting the internal gradient        .... done
Number of atoms                         ....  29
Number of internal coordinates          .... 172
Current Energy                          ....  -652.793118549 Eh
Current gradient norm                   ....     0.141908734 Eh/bohr
Maximum allowed component of the step   ....  0.300
Current trust radius                    ....  0.300
Evaluating the initial hessian          ....  (Almloef) done
Projecting the Hessian                  .... done
Forming the augmented Hessian           .... done
Diagonalizing the augmented Hessian     .... done
Last element of RFO vector              ....  0.819945110
Lowest eigenvalues of augmented Hessian:
 -0.240087613  0.007760330  0.032997621  0.033176848  0.036839017
Length of the computed step             ....  0.698146918
Warning: the length of the step is outside the trust region - taking restricted step instead
The input lambda is                     ....    -0.240088
   iter:   1  x=   -0.433358  g=    2.056236 f(x)=     0.397409
   iter:   2  x=   -0.651633  g=    0.726508 f(x)=     0.158579
   iter:   3  x=   -0.821174  g=    0.314575 f(x)=     0.053333
   iter:   4  x=   -0.884806  g=    0.187991 f(x)=     0.011962
   iter:   5  x=   -0.891005  g=    0.158294 f(x)=     0.000981
   iter:   6  x=   -0.891056  g=    0.155748 f(x)=     0.000008
   iter:   7  x=   -0.891056  g=    0.155727 f(x)=     0.000000
   iter:   8  x=   -0.891056  g=    0.155727 f(x)=     0.000000
The output lambda is                    ....    -0.891056 (8 iterations)
The final length of the internal step   ....  0.300000000
Converting the step to cartesian space:
 Initial RMS(Int)=    0.0228747855
Transforming coordinates:
 Iter   0:  RMS(Cart)=    0.3081328105 RMS(Int)=    0.0234023787
 Iter   1:  RMS(Cart)=    0.0167044410 RMS(Int)=    0.0078914291
 Iter   2:  RMS(Cart)=    0.0039602220 RMS(Int)=    0.0008259411
 Iter   3:  RMS(Cart)=    0.0004627034 RMS(Int)=    0.0002257307
 Iter   4:  RMS(Cart)=    0.0000818365 RMS(Int)=    0.0000226353
 Iter   5:  RMS(Cart)=    0.0000114023 RMS(Int)=    0.0000052316
 Iter   6:  RMS(Cart)=    0.0000019394 RMS(Int)=    0.0000006593
 Iter   7:  RMS(Cart)=    0.0000002904 RMS(Int)=    0.0000001240
 Iter   8:  RMS(Cart)=    0.0000000479 RMS(Int)=    0.0000000187
Imposing constraints:
 Iter   0:  RMS(Cart)=    0.0008023390 RMS(Int)=    0.0002918434
 Iter   1:  RMS(Cart)=    0.0004376887 RMS(Int)=    0.0001881627
 Iter   2:  RMS(Cart)=    0.0002550991 RMS(Int)=    0.0001400126
 Iter   3:  RMS(Cart)=    0.0001585487 RMS(Int)=    0.0001169607
 Iter   4:  RMS(Cart)=    0.0001048700 RMS(Int)=    0.0001050005
 Iter   5:  RMS(Cart)=    0.0000737046 RMS(Int)=    0.0000979862
 Iter   6:  RMS(Cart)=    0.0000549488 RMS(Int)=    0.0000932715
 Iter   7:  RMS(Cart)=    0.0000433178 RMS(Int)=    0.0000896891
 Iter   8:  RMS(Cart)=    0.0000359033 RMS(Int)=    0.0000867015
 Iter   9:  RMS(Cart)=    0.0000310346 RMS(Int)=    0.0000840499
 Iter  10:  RMS(Cart)=    0.0000277246 RMS(Int)=    0.0000816052
[...]
  29   2.0000      -0.489664       -13.3244 
  30   2.0000      -0.480039       -13.0625 
  31   2.0000      -0.460440       -12.5292 
  32   2.0000      -0.458300       -12.4710 
  33   2.0000      -0.438513       -11.9326 
  34   2.0000      -0.424680       -11.5561 
  35   2.0000      -0.422009       -11.4834 
  36   2.0000      -0.410935       -11.1821 
  37   2.0000      -0.398083       -10.8324 
  38   2.0000      -0.380991       -10.3673 
  39   2.0000      -0.374686       -10.1957 
  40   2.0000      -0.366945        -9.9851 
  41   2.0000      -0.360988        -9.8230 
  42   2.0000      -0.354670        -9.6511 
  43   2.0000      -0.337454        -9.1826 
  44   2.0000      -0.314747        -8.5647 
  45   2.0000      -0.312528        -8.5043 
  46   2.0000      -0.299870        -8.1599 
  47   2.0000      -0.277844        -7.5605 
  48   2.0000      -0.270055        -7.3486 
  49   2.0000      -0.260797        -7.0966 
  50   2.0000      -0.241170        -6.5626 
  51   0.0000       0.060578         1.6484 
  52   0.0000       0.066514         1.8099 
  53   0.0000       0.085553         2.3280 
  54   0.0000       0.093909         2.5554 
  55   0.0000       0.098172         2.6714 
  56   0.0000       0.104051         2.8314 
  57   0.0000       0.112040         3.0488 
  58   0.0000       0.127556         3.4710 
  59   0.0000       0.134303         3.6546 
  60   0.0000       0.135211         3.6793 
  61   0.0000       0.140450         3.8218 
  62   0.0000       0.146132         3.9764 
  63   0.0000       0.150267         4.0890 
  64   0.0000       0.160592         4.3699 
  65   0.0000       0.170016         4.6264 
  66   0.0000       0.179552         4.8859 
  67   0.0000       0.191740         5.2175 
  68   0.0000       0.193310         5.2602 
  69   0.0000       0.199059         5.4167 
  70   0.0000       0.205349         5.5878 
  71   0.0000       0.217661         5.9229 
  72   0.0000       0.231695         6.3047 
  73   0.0000       0.235047         6.3959 
  74   0.0000       0.245615         6.6835 
  75   0.0000       0.256935         6.9916 
  76   0.0000       0.266663         7.2563 
  77   0.0000       0.277934         7.5630 
  78   0.0000       0.301007         8.1908 
  79   0.0000       0.308604         8.3975 
  80   0.0000       0.312929         8.5152 
  81   0.0000       0.495511        13.4835 
  82   0.0000       0.534856        14.5542 
  83   0.0000       0.538127        14.6432 
  84   0.0000       0.552628        15.0378 
  85   0.0000       0.556810        15.1516 
  86   0.0000       0.568116        15.4592 
  87   0.0000       0.581630        15.8270 
  88   0.0000       0.583160        15.8686 
  89   0.0000       0.591197        16.0873 
  90   0.0000       0.606024        16.4907 
  91   0.0000       0.607923        16.5424 
  92   0.0000       0.613555        16.6957 
  93   0.0000       0.626197        17.0397 
  94   0.0000       0.629363        17.1258 
  95   0.0000       0.650022        17.6880 
  96   0.0000       0.672282        18.2937 
  97   0.0000       0.684960        18.6387 
  98   0.0000       0.690522        18.7901 
  99   0.0000       0.715329        19.4651 
 100   0.0000       0.735751        20.0208 
 101   0.0000       0.763522        20.7765 
 102   0.0000       0.779869        21.2213 
 103   0.0000       0.821390        22.3512 
 104   0.0000       0.826983        22.5033 
 105   0.0000       0.835276        22.7290 
 106   0.0000       0.848667        23.0934 
 107   0.0000       0.854274        23.2460 
 108   0.0000       0.860996        23.4289 
 109   0.0000       0.870852        23.6971 
 110   0.0000       0.881902        23.9978 
 111   0.0000       0.884510        24.0687 
 112   0.0000       0.894072        24.3289 
 113   0.0000       0.901478        24.5305 
 114   0.0000       0.918338        24.9893 
 115   0.0000       0.927141        25.2288 
 116   0.0000       0.938301        25.5325 
 117   0.0000       0.945201        25.7202 
 118   0.0000       0.947578        25.7849 
 119   0.0000       0.956590        26.0301 
 120   0.0000       0.976102        26.5611 
 121   0.0000       0.984149        26.7801 
 122   0.0000       1.003063        27.2947 
 123   0.0000       1.022044        27.8112 
 124   0.0000       1.081732        29.4354 
 125   0.0000       1.093855        29.7653 
 126   0.0000       1.104544        30.0562 
 127   0.0000       1.111411        30.2430 
 128   0.0000       1.132890        30.8275 
 129   0.0000       1.144329        31.1388 
 130   0.0000       1.162594        31.6358 
 131   0.0000       1.198434        32.6111 
 132   0.0000       1.263886        34.3921 
 133   0.0000       1.322905        35.9981 
 134   0.0000       1.330674        36.2095 
 135   0.0000       1.345627        36.6164 
 136   0.0000       1.375104        37.4185 
 137   0.0000       1.403406        38.1886 
 138   0.0000       1.429578        38.9008 
 139   0.0000       1.458840        39.6971 
 140   0.0000       1.520359        41.3711 
 141   0.0000       1.584469        43.1156 
 142   0.0000       1.653371        44.9905 
 143   0.0000       1.706229        46.4288 
 144   0.0000       1.785822        48.5947 
 145   0.0000       1.875321        51.0301 
 146   0.0000       1.899166        51.6789 
 147   0.0000       2.047642        55.7192 
 148   0.0000       2.091588        56.9150 

                    ********************************
                    * MULLIKEN POPULATION ANALYSIS *
                    ********************************

-----------------------
MULLIKEN ATOMIC CHARGES
-----------------------
   0 C :    0.307878
   1 C :   -0.284958
   2 C :   -0.305910
   3 C :    0.000184
   4 O :   -0.497633
   5 H :    0.138616
   6 H :    0.148429
   7 H :    0.141138
   8 H :    0.144770
   9 H :    0.166229
  10 H :    0.157062
  11 H :    0.142792
  12 C :   -0.014911
  13 H :    0.116627
  14 H :    0.174192
  15 O :   -0.513223
  16 C :    0.054197
  17 C :    0.073870
  18 C :   -0.302068
  19 C :   -0.033753
  20 O :   -0.522209
  21 H :    0.168043
  22 O :   -0.605471
  23 H :    0.167047
  24 H :    0.166152
  25 H :    0.144762
  26 H :    0.150776
  27 H :    0.151044
  28 H :    0.366328
Sum of atomic charges:   -0.0000000

--------------------------------
MULLIKEN REDUCED ORBITAL CHARGES
--------------------------------
  0 C s       :     3.196057  s :     3.196057
      pz      :     0.801017  p :     2.496065
      px      :     0.698016
      py      :     0.997033
  1 C s       :     3.312686  s :     3.312686
      pz      :     0.988711  p :     2.972272
      px      :     1.016893
      py      :     0.966669
  2 C s       :     3.320917  s :     3.320917
      pz      :     0.904351  p :     2.984993
      px      :     1.088115
      py      :     0.992527
  3 C s       :     3.262314  s :     3.262314
      pz      :     0.928191  p :     2.737501
      px      :     1.051791
      py      :     0.757520
  4 O s       :     3.937192  s :     3.937192
      pz      :     1.253382  p :     4.560441
      px      :     1.771981
      py      :     1.535077
  5 H s       :     0.861384  s :     0.861384
  6 H s       :     0.851571  s :     0.851571
  7 H s       :     0.858862  s :     0.858862
  8 H s       :     0.855230  s :     0.855230
  9 H s       :     0.833771  s :     0.833771
 10 H s       :     0.842938  s :     0.842938
 11 H s       :     0.857208  s :     0.857208
 12 C s       :     3.264521  s :     3.264521
      pz      :     0.790027  p :     2.750390
      px      :     0.973571
      py      :     0.986791
 13 H s       :     0.883373  s :     0.883373
 14 H s       :     0.825808  s :     0.825808
 15 O s       :     3.916649  s :     3.916649
      pz      :     1.488337  p :     4.596574
      px      :     1.264323
      py      :     1.843913
 16 C s       :     3.272330  s :     3.272330
      pz      :     0.782319  p :     2.673473
      px      :     0.933560
      py      :     0.957594
 17 C s       :     3.270390  s :     3.270390
      pz      :     0.995834  p :     2.655740
      px      :     0.954993
      py      :     0.704913
 18 C s       :     3.316079  s :     3.316079
      pz      :     0.957305  p :     2.985989
      px      :     0.962964
      py      :     1.065720
 19 C s       :     3.271240  s :     3.271240
      pz      :     0.829249  p :     2.762514
      px      :     0.862843
      py      :     1.070421
 20 O s       :     3.945935  s :     3.945935
      pz      :     1.156798  p :     4.576274
      px      :     1.577746
      py      :     1.841730
 21 H s       :     0.831957  s :     0.831957
 22 O s       :     3.923457  s :     3.923457
      pz      :     1.811719  p :     4.682013
      px      :     1.384806
      py      :     1.485488
 23 H s       :     0.832953  s :     0.832953
 24 H s       :     0.833848  s :     0.833848
 25 H s       :     0.855238  s :     0.855238
 26 H s       :     0.849224  s :     0.849224
 27 H s       :     0.848956  s :     0.848956
 28 H s       :     0.633672  s :     0.633672


                     *******************************
                     * LOEWDIN POPULATION ANALYSIS *
                     *******************************

----------------------
LOEWDIN ATOMIC CHARGES
----------------------
   0 C :    0.185405
   1 C :   -0.235843
   2 C :   -0.217948
   3 C :   -0.024166
   4 O :   -0.299572
   5 H :    0.094688
   6 H :    0.117324
   7 H :    0.111951
   8 H :    0.115988
   9 H :    0.117967
  10 H :    0.110752
  11 H :    0.102609
  12 C :   -0.041974
  13 H :    0.089830
  14 H :    0.124084
  15 O :   -0.338336
  16 C :    0.007806
  17 C :    0.031826
  18 C :   -0.242909
  19 C :   -0.039250
  20 O :   -0.326945
  21 H :    0.117798
  22 O :   -0.414608
  23 H :    0.120667
  24 H :    0.128421
  25 H :    0.111026
  26 H :    0.105656
  27 H :    0.104324
  28 H :    0.283431

-------------------------------
LOEWDIN REDUCED ORBITAL CHARGES
-------------------------------
  0 C s       :     2.953086  s :     2.953086
      pz      :     0.925960  p :     2.861510
      px      :     0.861302
      py      :     1.074248
  1 C s       :     2.980234  s :     2.980234
      pz      :     1.079321  p :     3.255609
      px      :     1.103077
      py      :     1.073211
  2 C s       :     2.971453  s :     2.971453
      pz      :     1.030180  p :     3.246495
      px      :     1.132873
      py      :     1.083442
  3 C s       :     2.982888  s :     2.982888
      pz      :     1.031222  p :     3.041279
      px      :     1.112761
      py      :     0.897297
  4 O s       :     3.591562  s :     3.591562
      pz      :     1.327390  p :     4.708010
      px      :     1.799648
      py      :     1.580972
  5 H s       :     0.905312  s :     0.905312
  6 H s       :     0.882676  s :     0.882676
  7 H s       :     0.888049  s :     0.888049
  8 H s       :     0.884012  s :     0.884012
  9 H s       :     0.882033  s :     0.882033
 10 H s       :     0.889248  s :     0.889248
 11 H s       :     0.897391  s :     0.897391
 12 C s       :     2.980431  s :     2.980431
      pz      :     0.925195  p :     3.061543
      px      :     1.052332
      py      :     1.084016
 13 H s       :     0.910170  s :     0.910170
 14 H s       :     0.875916  s :     0.875916
 15 O s       :     3.587115  s :     3.587115
      pz      :     1.547356  p :     4.751221
      px      :     1.334850
      py      :     1.869015
 16 C s       :     2.974268  s :     2.974268
      pz      :     0.912824  p :     3.017927
      px      :     1.027026
      py      :     1.078077
 17 C s       :     2.953963  s :     2.953963
      pz      :     1.075217  p :     3.014211
      px      :     1.047285
      py      :     0.891708
 18 C s       :     2.983870  s :     2.983870
      pz      :     1.064038  p :     3.259039
      px      :     1.076392
      py      :     1.118608
 19 C s       :     2.983782  s :     2.983782
      pz      :     0.949525  p :     3.055468
      px      :     0.984915
      py      :     1.121028
 20 O s       :     3.603851  s :     3.603851
      pz      :     1.233141  p :     4.723094
      px      :     1.626401
      py      :     1.863552
 21 H s       :     0.882202  s :     0.882202
 22 O s       :     3.614880  s :     3.614880
      pz      :     1.832049  p :     4.799728
      px      :     1.431035
      py      :     1.536643
 23 H s       :     0.879333  s :     0.879333
 24 H s       :     0.871579  s :     0.871579
 25 H s       :     0.888974  s :     0.888974
 26 H s       :     0.894344  s :     0.894344
 27 H s       :     0.895676  s :     0.895676
 28 H s       :     0.716569  s :     0.716569


                      *****************************
                      * MAYER POPULATION ANALYSIS *
                      *****************************

  NA   - Mulliken gross atomic population
  ZA   - Total nuclear charge
  QA   - Mulliken gross atomic charge
  VA   - Mayer's total valence
  BVA  - Mayer's bonded valence
  FA   - Mayer's free valence

  ATOM       NA         ZA         QA         VA         BVA        FA
  0 C      5.6921     6.0000     0.3079     3.6726     3.6726    -0.0000
  1 C      6.2850     6.0000    -0.2850     3.7072     3.7072    -0.0000
  2 C      6.3059     6.0000    -0.3059     3.7577     3.7577    -0.0000
  3 C      5.9998     6.0000     0.0002     3.6556     3.6556     0.0000
  4 O      8.4976     8.0000    -0.4976     1.8066     1.8066     0.0000
  5 H      0.8614     1.0000     0.1386     0.9321     0.9321     0.0000
  6 H      0.8516     1.0000     0.1484     0.9314     0.9314    -0.0000
  7 H      0.8589     1.0000     0.1411     0.9434     0.9434    -0.0000
  8 H      0.8552     1.0000     0.1448     0.9367     0.9367     0.0000
  9 H      0.8338     1.0000     0.1662     0.9323     0.9323    -0.0000
 10 H      0.8429     1.0000     0.1571     0.9252     0.9252     0.0000
 11 H      0.8572     1.0000     0.1428     0.9287     0.9287     0.0000
 12 C      6.0149     6.0000    -0.0149     3.6545     3.6545     0.0000
 13 H      0.8834     1.0000     0.1166     0.9422     0.9422     0.0000
 14 H      0.8258     1.0000     0.1742     0.9258     0.9258     0.0000
 15 O      8.5132     8.0000    -0.5132     1.7420     1.7420     0.0000
 16 C      5.9458     6.0000     0.0542     3.5664     3.5664    -0.0000
 17 C      5.9261     6.0000     0.0739     3.6338     3.6338    -0.0000
 18 C      6.3021     6.0000    -0.3021     3.6884     3.6884     0.0000
 19 C      6.0338     6.0000    -0.0338     3.6625     3.6625    -0.0000
 20 O      8.5222     8.0000    -0.5222     1.7618     1.7618    -0.0000
 21 H      0.8320     1.0000     0.1680     0.9303     0.9303    -0.0000
 22 O      8.6055     8.0000    -0.6055     1.7391     1.7391    -0.0000
 23 H      0.8330     1.0000     0.1670     0.9381     0.9381    -0.0000
 24 H      0.8338     1.0000     0.1662     0.9386     0.9386    -0.0000
 25 H      0.8552     1.0000     0.1448     0.9353     0.9353    -0.0000
 26 H      0.8492     1.0000     0.1508     0.9266     0.9266    -0.0000
 27 H      0.8490     1.0000     0.1510     0.9278     0.9278     0.0000
 28 H      0.6337     1.0000     0.3663     0.8321     0.8321    -0.0000

  Mayer bond orders larger than 0.100000
B(  0-C ,  1-C ) :   0.9233 B(  0-C ,  4-O ) :   0.9398 B(  0-C ,  5-H ) :   0.9197 
B(  0-C , 15-O ) :   0.8404 B(  1-C ,  2-C ) :   0.9518 B(  1-C ,  6-H ) :   0.9309 
B(  1-C ,  7-H ) :   0.9169 B(  2-C ,  3-C ) :   0.9517 B(  2-C ,  8-H ) :   0.9446 
B(  2-C ,  9-H ) :   0.9399 B(  3-C ,  4-O ) :   0.8346 B(  3-C , 10-H ) :   0.9341 
B(  3-C , 11-H ) :   0.9392 B( 12-C , 13-H ) :   0.9254 B( 12-C , 14-H ) :   0.9272 
B( 12-C , 15-O ) :   0.8528 B( 12-C , 16-C ) :   0.8788 B( 16-C , 17-C ) :   0.9118 
B( 16-C , 20-O ) :   0.8268 B( 16-C , 21-H ) :   0.9244 B( 17-C , 18-C ) :   0.9130 
B( 17-C , 22-O ) :   0.8800 B( 17-C , 23-H ) :   0.9109 B( 18-C , 19-C ) :   0.9385 
B( 18-C , 24-H ) :   0.9371 B( 18-C , 25-H ) :   0.9301 B( 19-C , 20-O ) :   0.8423 
B( 19-C , 26-H ) :   0.9342 B( 19-C , 27-H ) :   0.9371 B( 22-O , 28-H ) :   0.7920 


-------
TIMINGS
-------

Total SCF time: 0 days 0 hours 3 min 23 sec 

Total time                  ....     203.583 sec
Sum of individual times     ....     175.310 sec  ( 86.1%)

Fock matrix formation       ....     169.339 sec  ( 83.2%)
  XC integration            ....      42.783 sec  ( 25.3% of F)
    Basis function eval.    ....       1.578 sec  (  3.7% of XC)
    Density eval.           ....       0.918 sec  (  2.1% of XC)
    XC-Functional eval.     ....       1.518 sec  (  3.5% of XC)
    XC-Potential eval.      ....       0.702 sec  (  1.6% of XC)
Diagonalization             ....       0.069 sec  (  0.0%)
Density matrix formation    ....       0.004 sec  (  0.0%)
Population analysis         ....       0.021 sec  (  0.0%)
Initial guess               ....       0.022 sec  (  0.0%)
Orbital Transformation      ....       0.000 sec  (  0.0%)
Orbital Orthonormalization  ....       0.006 sec  (  0.0%)
DIIS solution               ....       0.002 sec  (  0.0%)
SOSCF solution              ....       0.072 sec  (  0.0%)
Grid generation             ....       5.781 sec  (  2.8%)

-------------------------   --------------------
FINAL SINGLE POINT ENERGY      -652.851505105244
-------------------------   --------------------

                                *** OPTIMIZATION RUN DONE ***

                            ***************************************
                            *     ORCA property calculations      *
                            ***************************************

                                    ---------------------
                                    Active property flags
                                    ---------------------
   (+) Dipole Moment


------------------------------------------------------------------------------
                       ORCA ELECTRIC PROPERTIES CALCULATION
------------------------------------------------------------------------------

Dipole Moment Calculation                       ... on
Quadrupole Moment Calculation                   ... off
Polarizability Calculation                      ... off
GBWName                                         ... project_8050/ensemble_195_255.gbw
Electron density file                           ... project_8050/ensemble_195_255.scfp
The origin for moment calculation is the CENTER OF MASS  = (-41.923976, 52.263241 85.598152)

-------------
DIPOLE MOMENT
-------------
                                X             Y             Z
Electronic contribution:     -4.34181      -2.04257       1.63401
Nuclear contribution   :      5.18399       2.45557      -2.59244
                        -----------------------------------------
Total Dipole Moment    :      0.84218       0.41300      -0.95843
                        -----------------------------------------
Magnitude (a.u.)       :      1.34105
Magnitude (Debye)      :      3.40868



--------------------
Rotational spectrum 
--------------------
 
Rotational constants in cm-1:     0.051730     0.014649     0.013278 
Rotational constants in MHz :  1550.835491   439.172465   398.078788 

 Dipole components along the rotational axes: 
x,y,z [a.u.] :    -0.385354    -0.647850     1.109149 
x,y,z [Debye]:    -0.979493    -1.646703     2.819232 

 

Timings for individual modules:

Sum of individual times         ...     3228.632 sec (=  53.811 min)
GTO integral calculation        ...       86.566 sec (=   1.443 min)   2.7 %
SCF iterations                  ...     2867.610 sec (=  47.794 min)  88.8 %
SCF Gradient evaluation         ...      235.373 sec (=   3.923 min)   7.3 %
Geometry relaxation             ...       39.082 sec (=   0.651 min)   1.2 %
                             ****ORCA TERMINATED NORMALLY****
TOTAL RUN TIME: 0 days 0 hours 55 minutes 50 seconds 274 msec
