
                                 *****************
                                 * O   R   C   A *
                                 *****************

           --- An Ab Initio, DFT and Semiempirical electronic structure package ---

                  #######################################################
                  #                        -***-                        #
                  #          Department of theory and spectroscopy      #
                  #               Directorship: Frank Neese             #
                  #        Max Planck Institute fuer Kohlenforschung    #
                  #                Kaiser Wilhelm Platz 1               #
                  #                 D-45470 Muelheim/Ruhr               #
                  #                      Germany                        #
                  #                                                     #
                  #                  All rights reserved                #
                  #                        -***-                        #
                  #######################################################


                         Program Version 4.2.0 -  RELEASE  -


 With contributions from (in alphabetic order):
   Daniel Aravena         : Magnetic Suceptibility
   Michael Atanasov       : Ab Initio Ligand Field Theory (pilot matlab implementation)
   Alexander A. Auer      : GIAO ZORA, VPT2
   Ute Becker             : Parallelization
   Giovanni Bistoni       : ED, misc. LED, open-shell LED, HFLED
   Martin Brehm           : Molecular dynamics
   Dmytro Bykov           : SCF Hessian
   Vijay G. Chilkuri      : MRCI spin determinant printing, contributions to CSF-ICE
   Dipayan Datta          : RHF DLPNO-CCSD density
   Achintya Kumar Dutta   : EOM-CC, STEOM-CC
   Dmitry Ganyushin       : Spin-Orbit,Spin-Spin,Magnetic field MRCI
   Miquel Garcia          : C-PCM Hessian, Gaussian charge scheme
   Yang Guo               : DLPNO-NEVPT2, CIM, IAO-localization
   Andreas Hansen         : Spin unrestricted coupled pair/coupled cluster methods
   Benjamin Helmich-Paris : CASSCF linear response (MC-RPA)
   Lee Huntington         : MR-EOM, pCC
   Robert Izsak           : Overlap fitted RIJCOSX, COSX-SCS-MP3, EOM
   Christian Kollmar      : KDIIS, OOCD, Brueckner-CCSD(T), CCSD density
   Simone Kossmann        : Meta GGA functionals, TD-DFT gradient, OOMP2, MP2 Hessian
   Martin Krupicka        : AUTO-CI
   Lucas Lang             : DCDCAS
   Dagmar Lenk            : GEPOL surface, SMD
   Dimitrios Liakos       : Extrapolation schemes; Compound Job, initial MDCI parallelization
   Dimitrios Manganas     : Further ROCIS development; embedding schemes
   Dimitrios Pantazis     : SARC Basis sets
   Taras Petrenko         : DFT Hessian,TD-DFT gradient, ASA, ECA, R-Raman, ABS, FL, XAS/XES, NRVS
   Peter Pinski           : DLPNO-MP2, DLPNO-MP2 Gradient
   Christoph Reimann      : Effective Core Potentials
   Marius Retegan         : Local ZFS, SOC
   Christoph Riplinger    : Optimizer, TS searches, QM/MM, DLPNO-CCSD(T), (RO)-DLPNO pert. Triples
   Tobias Risthaus        : Range-separated hybrids, TD-DFT gradient, RPA, STAB
   Michael Roemelt        : Original ROCIS implementation
   Masaaki Saitow         : Open-shell DLPNO-CCSD energy and density
   Barbara Sandhoefer     : DKH picture change effects
   Avijit Sen             : IP-ROCIS
   Kantharuban Sivalingam : CASSCF convergence, NEVPT2, FIC-MRCI
   Bernardo de Souza      : ESD, SOC TD-DFT
   Georgi Stoychev        : AutoAux, RI-MP2 NMR
   Willem Van den Heuvel  : Paramagnetic NMR
   Boris Wezisla          : Elementary symmetry handling
   Frank Wennmohs         : Technical directorship


 We gratefully acknowledge several colleagues who have allowed us to
 interface, adapt or use parts of their codes:
   Stefan Grimme, W. Hujo, H. Kruse,             : VdW corrections, initial TS optimization,
                  C. Bannwarth                     DFT functionals, gCP, sTDA/sTD-DF
   Ed Valeev, F. Pavosevic, A. Kumar             : LibInt (2-el integral package), F12 methods
   Garnet Chan, S. Sharma, J. Yang, R. Olivares  : DMRG
   Ulf Ekstrom                                   : XCFun DFT Library
   Mihaly Kallay                                 : mrcc  (arbitrary order and MRCC methods)
   Andreas Klamt, Michael Diedenhofen            : otool_cosmo (COSMO solvation model)
   Jiri Pittner, Ondrej Demel                    : Mk-CCSD
   Frank Weinhold                                : gennbo (NPA and NBO analysis)
   Christopher J. Cramer and Donald G. Truhlar   : smd solvation model
   Lars Goerigk                                  : TD-DFT with DH, B97 family of functionals
   V. Asgeirsson, H. Jonsson                     : NEB implementation
   FAccTs GmbH                                   : IRC, NEB, NEB-TS, Multilevel, MM, QM/MM, CI optimization
   S Lehtola, MJT Oliveira, MAL Marques          : LibXC Library


 Your calculation uses the libint2 library for the computation of 2-el integrals
 For citations please refer to: http://libint.valeyev.net

 Your ORCA version has been built with support for libXC version: 4.2.3
 For citations please refer to: https://tddft.org/programs/libxc/

 This ORCA versions uses:
   CBLAS   interface :  Fast vector & matrix operations
   LAPACKE interface :  Fast linear algebra routines
   SCALAPACK package :  Parallel linear algebra routines


----- Orbital basis set information -----
Your calculation utilizes the basis: 6-31G
   H-He, Li-Ne : W. J. Hehre, R. Ditchfield and J.A. Pople, J. Chem. Phys. 56, 2257 (1972).
                 Note: He and Ne are unpublished basis sets taken from the Gaussian program.
                 Note: Li and B from J. D. Dill and J. A. Pople, J. Chem. Phys. 62, 2921 (1975).
   Na - Ar     : M. M. Francl, W. J. Pietro, W. J. Hehre, J. S. Binkley, M. S. Gordon, 
                 D. J. DeFrees and J. A. Pople, J. Chem. Phys. 77, 3654 (1982).
   K - Zn      : V. A. Rassolov, J. A. Pople, M. A. Ratner, and T. L. Windus, J. Chem. Phys. 109, 1223 (1998).

================================================================================
                                        WARNINGS
                       Please study these warnings very carefully!
================================================================================


WARNING: Geometry Optimization
  ===> : Switching off AutoStart
         For restart on a previous wavefunction, please use MOREAD

INFO   : the flag for use of LIBINT has been found!

================================================================================
                                       INPUT FILE
================================================================================
NAME = project_8049/ensemble_240_90.inp
|  1> # Test redundant internal optimization
|  2> #
|  3> ! RKS B3LYP  Opt TightSCF SmallPrint
|  4> 
|  5> %basis
|  6>         Basis "6-31G"
|  7> end
|  8> 
|  9> %geom
| 10> Constraints
| 11> { D 4  0  15  12  240.0   C } # D for Dihedral angle
| 12> { D 0  15  12  16  90.0   C } # D for Dihedral angle
| 13> { D 0  4  3  2   C } # D for Dihedral angle
| 14> { D 4  3  2  1   C } # D for Dihedral angle
| 15> { D 3  2  1  0   C } # D for Dihedral angle
| 16> { D 2  1  0  4   C } # D for Dihedral angle
| 17> { D 1  0  4  3   C } # D for Dihedral angle
| 18> { D 16  20  19  18   C } # D for Dihedral angle
| 19> { D 20  19  18  17   C } # D for Dihedral angle
| 20> { D 19  18  17  16   C } # D for Dihedral angle
| 21> { D 18  17  16  20   C } # D for Dihedral angle
| 22> { D 17  16  20  19   C } # D for Dihedral angle
| 23> { D 15  12  16  20   C } # D for Dihedral angle
| 24> end
| 25> end
| 26> 
| 27> 
| 28> #%pal 
| 29> #nprocs 8
| 30> #end
| 31> 
| 32> * xyz 0 1
| 33> C  -21.048   26.222   46.251
| 34> C  -20.361   27.558   45.944
| 35> C  -20.329   28.222   47.341
| 36> C  -20.110   27.022   48.296
| 37> O  -20.473   25.807   47.535
| 38> H  -20.833   25.428   45.533
| 39> H  -19.344   27.382   45.576
| 40> H  -20.898   28.157   45.201
| 41> H  -19.543   28.978   47.434
| 42> H  -21.289   28.710   47.548
| 43> H  -20.733   27.082   49.195
| 44> H  -19.064   26.913   48.597
| 45> C  -23.430   25.483   45.442
| 46> H  -24.364   25.996   45.183
| 47> H  -22.884   25.274   44.513
| 48> O  -22.586   26.394   46.375
| 49> C  -23.787   24.120   46.097
| 50> C  -22.529   23.382   46.569
| 51> C  -22.217   24.113   47.897
| 52> C  -23.624   24.440   48.458
| 53> O  -24.565   24.328   47.322
| 54> H  -24.416   23.548   45.412
| 55> H  -22.759   22.327   46.754
| 56> O  -21.358   23.457   45.551
| 57> H  -21.624   23.505   48.588
| 58> H  -21.657   25.034   47.697
| 59> H  -23.684   25.449   48.877
| 60> H  -23.948   23.721   49.216
| 61> H  -21.111   24.506   45.352
| 62> *
| 63> 
| 64>                          ****END OF INPUT****
================================================================================

                       *****************************
                       * Geometry Optimization Run *
                       *****************************

Geometry optimization settings:
Update method            Update   .... BFGS
Choice of coordinates    CoordSys .... Z-matrix Internals
Initial Hessian          InHess   .... Almoef's Model

Convergence Tolerances:
Energy Change            TolE     ....  5.0000e-06 Eh
Max. Gradient            TolMAXG  ....  3.0000e-04 Eh/bohr
RMS Gradient             TolRMSG  ....  1.0000e-04 Eh/bohr
Max. Displacement        TolMAXD  ....  4.0000e-03 bohr
RMS Displacement         TolRMSD  ....  2.0000e-03 bohr
Strict Convergence                ....  False
------------------------------------------------------------------------------
                        ORCA OPTIMIZATION COORDINATE SETUP
------------------------------------------------------------------------------

The optimization will be done in new redundant internal coordinates
Making redundant internal coordinates   ...  (new redundants) done
Evaluating the initial hessian          ...  (Almloef) done
Evaluating the coordinates              ...  done
Calculating the B-matrix                .... done
Calculating the G-matrix                .... done
Diagonalizing the G-matrix              .... done
Imposing constraints:
 Iter   0:  RMS(Cart)=    0.0001090219 RMS(Int)=    0.0000388659
 Iter   1:  RMS(Cart)=    0.0000564260 RMS(Int)=    0.0000211411
 Iter   2:  RMS(Cart)=    0.0000299799 RMS(Int)=    0.0000124407
 Iter   3:  RMS(Cart)=    0.0000164564 RMS(Int)=    0.0000082649
 Iter   4:  RMS(Cart)=    0.0000094066 RMS(Int)=    0.0000063237
 Iter   5:  RMS(Cart)=    0.0000056454 RMS(Int)=    0.0000054153
 Iter   6:  RMS(Cart)=    0.0000035811 RMS(Int)=    0.0000049507
 Iter   7:  RMS(Cart)=    0.0000024104 RMS(Int)=    0.0000046726
 Iter   8:  RMS(Cart)=    0.0000017237 RMS(Int)=    0.0000044759
 Iter   9:  RMS(Cart)=    0.0000013087 RMS(Int)=    0.0000043174
 Iter  10:  RMS(Cart)=    0.0000010518 RMS(Int)=    0.0000041786
 Iter  11:  RMS(Cart)=    0.0000008888 RMS(Int)=    0.0000040510
 Iter  12:  RMS(Cart)=    0.0000007825 RMS(Int)=    0.0000039309
 Iter  13:  RMS(Cart)=    0.0000007105 RMS(Int)=    0.0000038163
 Iter  14:  RMS(Cart)=    0.0000006593 RMS(Int)=    0.0000037060
 Iter  15:  RMS(Cart)=    0.0000006207 RMS(Int)=    0.0000035997
 Iter  16:  RMS(Cart)=    0.0000005904 RMS(Int)=    0.0000034970
 Iter  17:  RMS(Cart)=    0.0000005647 RMS(Int)=    0.0000033975
 Iter  18:  RMS(Cart)=    0.0000005431 RMS(Int)=    0.0000033013
 Iter  19:  RMS(Cart)=    0.0000005233 RMS(Int)=    0.0000032081
 Iter  20:  RMS(Cart)=    0.0000005058 RMS(Int)=    0.0000031178
 Iter  21:  RMS(Cart)=    0.0000004892 RMS(Int)=    0.0000030303
 Iter  22:  RMS(Cart)=    0.0000004727 RMS(Int)=    0.0000029456
 Iter  23:  RMS(Cart)=    0.0000004589 RMS(Int)=    0.0000028635
 Iter  24:  RMS(Cart)=    0.0000004452 RMS(Int)=    0.0000027840
 Iter  25:  RMS(Cart)=    0.0000004314 RMS(Int)=    0.0000027069
 Iter  26:  RMS(Cart)=    0.0000004187 RMS(Int)=    0.0000026321
 Iter  27:  RMS(Cart)=    0.0000004056 RMS(Int)=    0.0000025597
 Iter  28:  RMS(Cart)=    0.0000003946 RMS(Int)=    0.0000024895
 Iter  29:  RMS(Cart)=    0.0000003817 RMS(Int)=    0.0000024215
 Iter  30:  RMS(Cart)=    0.0000003721 RMS(Int)=    0.0000023555
 Iter  31:  RMS(Cart)=    0.0000003610 RMS(Int)=    0.0000022916
 Iter  32:  RMS(Cart)=    0.0000003496 RMS(Int)=    0.0000022295
 Iter  33:  RMS(Cart)=    0.0000003401 RMS(Int)=    0.0000021694
 Iter  34:  RMS(Cart)=    0.0000003309 RMS(Int)=    0.0000021111
 Iter  35:  RMS(Cart)=    0.0000003211 RMS(Int)=    0.0000020546
 Iter  36:  RMS(Cart)=    0.0000003114 RMS(Int)=    0.0000019997
 Iter  37:  RMS(Cart)=    0.0000003011 RMS(Int)=    0.0000019466
 Iter  38:  RMS(Cart)=    0.0000002950 RMS(Int)=    0.0000018950
 Iter  39:  RMS(Cart)=    0.0000002863 RMS(Int)=    0.0000018449
 Iter  40:  RMS(Cart)=    0.0000002783 RMS(Int)=    0.0000017964
 Iter  41:  RMS(Cart)=    0.0000002700 RMS(Int)=    0.0000017493
 Iter  42:  RMS(Cart)=    0.0000002624 RMS(Int)=    0.0000017036
 Iter  43:  RMS(Cart)=    0.0000002551 RMS(Int)=    0.0000016593
 Iter  44:  RMS(Cart)=    0.0000002480 RMS(Int)=    0.0000016162
 Iter  45:  RMS(Cart)=    0.0000002397 RMS(Int)=    0.0000015745
 Iter  46:  RMS(Cart)=    0.0000002356 RMS(Int)=    0.0000015340
 Iter  47:  RMS(Cart)=    0.0000002288 RMS(Int)=    0.0000014947
 Iter  48:  RMS(Cart)=    0.0000002219 RMS(Int)=    0.0000014565
 Iter  49:  RMS(Cart)=    0.0000002159 RMS(Int)=    0.0000014195
 Iter  50:  RMS(Cart)=    0.0000002100 RMS(Int)=    0.0000013835
 Iter  51:  RMS(Cart)=    0.0000002027 RMS(Int)=    0.0000013486
 Iter  52:  RMS(Cart)=    0.0000001994 RMS(Int)=    0.0000013147
 Iter  53:  RMS(Cart)=    0.0000001918 RMS(Int)=    0.0000012818
 Iter  54:  RMS(Cart)=    0.0000001881 RMS(Int)=    0.0000012499
 Iter  55:  RMS(Cart)=    0.0000001831 RMS(Int)=    0.0000012188
 Iter  56:  RMS(Cart)=    0.0000001783 RMS(Int)=    0.0000011887
 Iter  57:  RMS(Cart)=    0.0000001719 RMS(Int)=    0.0000011595
 Iter  58:  RMS(Cart)=    0.0000001696 RMS(Int)=    0.0000011310
 Iter  59:  RMS(Cart)=    0.0000001645 RMS(Int)=    0.0000011034
 Iter  60:  RMS(Cart)=    0.0000001585 RMS(Int)=    0.0000010766
 Iter  61:  RMS(Cart)=    0.0000001542 RMS(Int)=    0.0000010506
 Iter  62:  RMS(Cart)=    0.0000001517 RMS(Int)=    0.0000010253
 Iter  63:  RMS(Cart)=    0.0000001462 RMS(Int)=    0.0000010007
 Iter  64:  RMS(Cart)=    0.0000001447 RMS(Int)=    0.0000009769
 Iter  65:  RMS(Cart)=    0.0000001404 RMS(Int)=    0.0000009537
 Iter  66:  RMS(Cart)=    0.0000001351 RMS(Int)=    0.0000009311
 Iter  67:  RMS(Cart)=    0.0000001314 RMS(Int)=    0.0000009092
 Iter  68:  RMS(Cart)=    0.0000001297 RMS(Int)=    0.0000008879
 Iter  69:  RMS(Cart)=    0.0000001265 RMS(Int)=    0.0000008672
 Iter  70:  RMS(Cart)=    0.0000001215 RMS(Int)=    0.0000008471
 Iter  71:  RMS(Cart)=    0.0000001183 RMS(Int)=    0.0000008276
 Iter  72:  RMS(Cart)=    0.0000001152 RMS(Int)=    0.0000008086
 Iter  73:  RMS(Cart)=    0.0000001123 RMS(Int)=    0.0000007901
 Iter  74:  RMS(Cart)=    0.0000001112 RMS(Int)=    0.0000007721
 Iter  75:  RMS(Cart)=    0.0000001067 RMS(Int)=    0.0000007547
 Iter  76:  RMS(Cart)=    0.0000001066 RMS(Int)=    0.0000007377
 Iter  77:  RMS(Cart)=    0.0000001033 RMS(Int)=    0.0000007212
 Iter  78:  RMS(Cart)=    0.0000000989 RMS(Int)=    0.0000007051
 Iter  79:  RMS(Cart)=    0.0000000964 RMS(Int)=    0.0000006895
 Iter  80:  RMS(Cart)=    0.0000000958 RMS(Int)=    0.0000006743
 Iter  81:  RMS(Cart)=    0.0000000916 RMS(Int)=    0.0000006596
 Iter  82:  RMS(Cart)=    0.0000000893 RMS(Int)=    0.0000006452
 Iter  83:  RMS(Cart)=    0.0000000855 RMS(Int)=    0.0000006312
 Iter  84:  RMS(Cart)=    0.0000000847 RMS(Int)=    0.0000006176
 Iter  85:  RMS(Cart)=    0.0000000846 RMS(Int)=    0.0000006044
 Iter  86:  RMS(Cart)=    0.0000000827 RMS(Int)=    0.0000005915
 Iter  87:  RMS(Cart)=    0.0000000789 RMS(Int)=    0.0000005790
 Iter  88:  RMS(Cart)=    0.0000000754 RMS(Int)=    0.0000005668
 Iter  89:  RMS(Cart)=    0.0000000769 RMS(Int)=    0.0000005549
 Iter  90:  RMS(Cart)=    0.0000000752 RMS(Int)=    0.0000005433
 Iter  91:  RMS(Cart)=    0.0000000715 RMS(Int)=    0.0000005321
 Iter  92:  RMS(Cart)=    0.0000000682 RMS(Int)=    0.0000005211
 Iter  93:  RMS(Cart)=    0.0000000679 RMS(Int)=    0.0000005104
 Iter  94:  RMS(Cart)=    0.0000000663 RMS(Int)=    0.0000005001
 Iter  95:  RMS(Cart)=    0.0000000668 RMS(Int)=    0.0000004899
 Iter  96:  RMS(Cart)=    0.0000000633 RMS(Int)=    0.0000004801
 Iter  97:  RMS(Cart)=    0.0000000618 RMS(Int)=    0.0000004705
 Iter  98:  RMS(Cart)=    0.0000000603 RMS(Int)=    0.0000004612
 Iter  99:  RMS(Cart)=    0.0000000611 RMS(Int)=    0.0000004520
 RMS(Cart) too big - taking linear step, building new B-matrix and trying again
Imposing constraints:
 Iter   0:  RMS(Cart)=    0.0000564268 RMS(Int)=    0.0000211412
 Iter   1:  RMS(Cart)=    0.0000299806 RMS(Int)=    0.0000124407
 Iter   2:  RMS(Cart)=    0.0000164569 RMS(Int)=    0.0000082648
 Iter   3:  RMS(Cart)=    0.0000094069 RMS(Int)=    0.0000063235
 Iter   4:  RMS(Cart)=    0.0000056456 RMS(Int)=    0.0000054151
 Iter   5:  RMS(Cart)=    0.0000035812 RMS(Int)=    0.0000049504
 Iter   6:  RMS(Cart)=    0.0000024104 RMS(Int)=    0.0000046723
 Iter   7:  RMS(Cart)=    0.0000017237 RMS(Int)=    0.0000044756
 Iter   8:  RMS(Cart)=    0.0000013087 RMS(Int)=    0.0000043171
 Iter   9:  RMS(Cart)=    0.0000010517 RMS(Int)=    0.0000041782
 Iter  10:  RMS(Cart)=    0.0000008888 RMS(Int)=    0.0000040507
 Iter  11:  RMS(Cart)=    0.0000007826 RMS(Int)=    0.0000039306
 Iter  12:  RMS(Cart)=    0.0000007105 RMS(Int)=    0.0000038159
 Iter  13:  RMS(Cart)=    0.0000006592 RMS(Int)=    0.0000037057
 Iter  14:  RMS(Cart)=    0.0000006209 RMS(Int)=    0.0000035994
 Iter  15:  RMS(Cart)=    0.0000005903 RMS(Int)=    0.0000034967
 Iter  16:  RMS(Cart)=    0.0000005650 RMS(Int)=    0.0000033972
 Iter  17:  RMS(Cart)=    0.0000005429 RMS(Int)=    0.0000033010
 Iter  18:  RMS(Cart)=    0.0000005233 RMS(Int)=    0.0000032078
 Iter  19:  RMS(Cart)=    0.0000005055 RMS(Int)=    0.0000031175
 Iter  20:  RMS(Cart)=    0.0000004886 RMS(Int)=    0.0000030301
 Iter  21:  RMS(Cart)=    0.0000004736 RMS(Int)=    0.0000029453
 Iter  22:  RMS(Cart)=    0.0000004586 RMS(Int)=    0.0000028632
 Iter  23:  RMS(Cart)=    0.0000004449 RMS(Int)=    0.0000027837
 Iter  24:  RMS(Cart)=    0.0000004314 RMS(Int)=    0.0000027066
 Iter  25:  RMS(Cart)=    0.0000004187 RMS(Int)=    0.0000026319
 Iter  26:  RMS(Cart)=    0.0000004064 RMS(Int)=    0.0000025595
 Iter  27:  RMS(Cart)=    0.0000003942 RMS(Int)=    0.0000024893
 Iter  28:  RMS(Cart)=    0.0000003823 RMS(Int)=    0.0000024212
 Iter  29:  RMS(Cart)=    0.0000003706 RMS(Int)=    0.0000023553
 Iter  30:  RMS(Cart)=    0.0000003609 RMS(Int)=    0.0000022913
 Iter  31:  RMS(Cart)=    0.0000003506 RMS(Int)=    0.0000022293
 Iter  32:  RMS(Cart)=    0.0000003395 RMS(Int)=    0.0000021692
 Iter  33:  RMS(Cart)=    0.0000003298 RMS(Int)=    0.0000021109
 Iter  34:  RMS(Cart)=    0.0000003210 RMS(Int)=    0.0000020544
 Iter  35:  RMS(Cart)=    0.0000003119 RMS(Int)=    0.0000019995
 Iter  36:  RMS(Cart)=    0.0000003031 RMS(Int)=    0.0000019463
 Iter  37:  RMS(Cart)=    0.0000002946 RMS(Int)=    0.0000018948
 Iter  38:  RMS(Cart)=    0.0000002864 RMS(Int)=    0.0000018447
 Iter  39:  RMS(Cart)=    0.0000002777 RMS(Int)=    0.0000017962
 Iter  40:  RMS(Cart)=    0.0000002699 RMS(Int)=    0.0000017491
 Iter  41:  RMS(Cart)=    0.0000002624 RMS(Int)=    0.0000017034
 Iter  42:  RMS(Cart)=    0.0000002551 RMS(Int)=    0.0000016591
 Iter  43:  RMS(Cart)=    0.0000002480 RMS(Int)=    0.0000016160
 Iter  44:  RMS(Cart)=    0.0000002412 RMS(Int)=    0.0000015743
 Iter  45:  RMS(Cart)=    0.0000002330 RMS(Int)=    0.0000015338
 Iter  46:  RMS(Cart)=    0.0000002287 RMS(Int)=    0.0000014945
 Iter  47:  RMS(Cart)=    0.0000002218 RMS(Int)=    0.0000014563
 Iter  48:  RMS(Cart)=    0.0000002158 RMS(Int)=    0.0000014193
 Iter  49:  RMS(Cart)=    0.0000002084 RMS(Int)=    0.0000013833
 Iter  50:  RMS(Cart)=    0.0000002041 RMS(Int)=    0.0000013484
 Iter  51:  RMS(Cart)=    0.0000001999 RMS(Int)=    0.0000013145
 Iter  52:  RMS(Cart)=    0.0000001934 RMS(Int)=    0.0000012816
 Iter  53:  RMS(Cart)=    0.0000001882 RMS(Int)=    0.0000012497
 Iter  54:  RMS(Cart)=    0.0000001816 RMS(Int)=    0.0000012187
 Iter  55:  RMS(Cart)=    0.0000001766 RMS(Int)=    0.0000011885
 Iter  56:  RMS(Cart)=    0.0000001734 RMS(Int)=    0.0000011593
 Iter  57:  RMS(Cart)=    0.0000001689 RMS(Int)=    0.0000011309
 Iter  58:  RMS(Cart)=    0.0000001628 RMS(Int)=    0.0000011033
 Iter  59:  RMS(Cart)=    0.0000001600 RMS(Int)=    0.0000010765
 Iter  60:  RMS(Cart)=    0.0000001567 RMS(Int)=    0.0000010504
 Iter  61:  RMS(Cart)=    0.0000001502 RMS(Int)=    0.0000010251
 Iter  62:  RMS(Cart)=    0.0000001462 RMS(Int)=    0.0000010006
 Iter  63:  RMS(Cart)=    0.0000001423 RMS(Int)=    0.0000009767
CONVERGED
Small eigenvalue found = 5.492e-03
Small eigenvalue found = 8.934e-03
Small eigenvalue found = 1.545e-02
The first mode is                       ....   91
The number of degrees of freedom        ....   81
Storing new coordinates                 .... done

    -----------------------------------------------------------------
                    Redundant Internal Coordinates


    -----------------------------------------------------------------
         Definition                    Initial Value    Approx d2E/dq
    -----------------------------------------------------------------
      1. B(C   1,C   0)                  1.5333         0.369027   
      2. B(C   2,C   1)                  1.5471         0.350825   
      3. B(C   3,C   2)                  1.5492         0.348147   
      4. B(O   4,C   0)                  1.4668         0.422031   
      5. B(O   4,C   3)                  1.4789         0.403699   
      6. B(H   5,C   0)                  1.0919         0.357632   
      7. B(H   6,C   1)                  1.0958         0.352561   
      8. B(H   7,C   1)                  1.0951         0.353431   
      9. B(H   8,C   2)                  1.0945         0.354166   
     10. B(H   9,C   2)                  1.0966         0.351438   
     11. B(H  10,C   3)                  1.0954         0.353010   
     12. B(H  11,C   3)                  1.0939         0.354989   
     13. B(H  13,C  12)                  1.0966         0.351430   
     14. B(H  14,C  12)                  1.0977         0.350119   
     15. B(O  15,C   0)                  1.5525         0.307993   
     16. B(O  15,C  12)                  1.5533         0.307141   
     17. B(C  16,C  12)                  1.5538         0.342320   
     18. B(C  17,C  16)                  1.5330         0.369523   
     19. B(C  18,C  17)                  1.5477         0.350092   
     20. B(C  19,C  18)                  1.5496         0.347606   
     21. B(O  20,C  16)                  1.4660         0.423266   
     22. B(O  20,C  19)                  1.4794         0.402995   
     23. B(H  21,C  16)                  1.0918         0.357713   
     24. B(H  22,C  17)                  1.0955         0.352880   
     25. B(O  23,C  17)                  1.5534         0.306980   
     26. B(H  24,C  18)                  1.0949         0.353683   
     27. B(H  25,C  18)                  1.0963         0.351881   
     28. B(H  26,C  19)                  1.0942         0.354605   
     29. B(H  27,C  19)                  1.0938         0.355047   
     30. B(H  28,O  23)                  1.0959         0.315600   
     31. A(O   4,C   0,H   5)          107.0166         0.328541   
     32. A(C   1,C   0,O  15)          111.3062         0.348740   
     33. A(C   1,C   0,O   4)          104.2509         0.367935   
     34. A(O   4,C   0,O  15)          110.4722         0.354548   
     35. A(C   1,C   0,H   5)          114.4407         0.323302   
     36. A(H   5,C   0,O  15)          109.1540         0.312058   
     37. A(C   0,C   1,C   2)          101.6783         0.358729   
     38. A(C   2,C   1,H   7)          112.8334         0.320016   
     39. A(C   2,C   1,H   6)          110.6702         0.319888   
     40. A(C   0,C   1,H   6)          110.0681         0.322546   
     41. A(H   6,C   1,H   7)          108.3679         0.289027   
     42. A(C   0,C   1,H   7)          113.1246         0.322677   
     43. A(C   1,C   2,H   8)          112.8312         0.320125   
     44. A(C   1,C   2,C   3)          103.1286         0.355196   
     45. A(C   1,C   2,H   9)          110.0795         0.319721   
     46. A(C   3,C   2,H   9)          110.6147         0.319321   
     47. A(C   3,C   2,H   8)          112.4032         0.319725   
     48. A(H   8,C   2,H   9)          107.7731         0.288977   
     49. A(O   4,C   3,H  10)          109.1301         0.325449   
     50. A(C   2,C   3,H  10)          112.5254         0.319554   
     51. A(C   2,C   3,O   4)          106.5267         0.361529   
     52. A(O   4,C   3,H  11)          107.1240         0.325748   
     53. A(H  10,C   3,H  11)          108.8727         0.289284   
     54. A(C   2,C   3,H  11)          112.4569         0.319846   
     55. A(C   0,O   4,C   3)          108.3128         0.371320   
     56. A(H  14,C  12,C  16)          107.7043         0.318248   
     57. A(H  13,C  12,H  14)          108.2303         0.288456   
     58. A(H  13,C  12,O  15)          109.2866         0.311037   
     59. A(H  14,C  12,O  15)          110.4717         0.310849   
     60. A(O  15,C  12,C  16)          112.7130         0.344201   
     61. A(H  13,C  12,C  16)          108.3106         0.318442   
     62. A(C   0,O  15,C  12)          115.1708         0.336120   
     63. A(C  12,C  16,C  17)          111.3189         0.357316   
     64. A(C  12,C  16,O  20)          110.4703         0.363414   
     65. A(C  17,C  16,O  20)          104.2723         0.368205   
     66. A(C  12,C  16,H  21)          109.1143         0.319364   
     67. A(C  17,C  16,H  21)          114.4396         0.323386   
     68. A(O  20,C  16,H  21)          107.0284         0.328712   
     69. A(C  16,C  17,C  18)          101.6682         0.358683   
     70. A(C  16,C  17,H  22)          110.0794         0.322665   
     71. A(C  18,C  17,H  22)          110.6266         0.319826   
     72. A(C  16,C  17,O  23)          113.1777         0.348626   
     73. A(C  18,C  17,O  23)          112.8015         0.345471   
     74. A(H  22,C  17,O  23)          108.3860         0.311217   
     75. A(C  17,C  18,C  19)          103.1366         0.354977   
     76. A(C  17,C  18,H  24)          112.8570         0.319945   
     77. A(C  19,C  18,H  24)          112.3623         0.319572   
     78. A(C  17,C  18,H  25)          110.0743         0.319678   
     79. A(C  19,C  18,H  25)          110.6446         0.319306   
     80. A(H  24,C  18,H  25)          107.7578         0.288972   
     81. A(C  18,C  19,O  20)          106.4733         0.361325   
     82. A(C  18,C  19,H  26)          112.5204         0.319708   
     83. A(O  20,C  19,H  26)          109.2074         0.325596   
     84. A(C  18,C  19,H  27)          112.4024         0.319773   
     85. A(O  20,C  19,H  27)          107.0949         0.325663   
     86. A(H  26,C  19,H  27)          108.9375         0.289496   
     87. A(C  16,O  20,C  19)          108.3506         0.371395   
     88. A(C  17,O  23,H  28)          109.5790         0.303147   
     89. D(H   7,C   1,C   0,H   5)     82.1535         0.010890   
     90. D(C   2,C   1,C   0,O  15)     79.0888         0.010890   
     91. D(H   7,C   1,C   0,O  15)    -42.1860         0.010890   
     92. D(H   6,C   1,C   0,O   4)     77.3246         0.010890   
     93. D(H   6,C   1,C   0,O  15)   -163.5721         0.010890   
     94. D(H   6,C   1,C   0,H   5)    -39.2326         0.010890   
     95. D(H   7,C   1,C   0,O   4)   -161.2893         0.010890   
     96. D(C   2,C   1,C   0,O   4)    -40.0146         0.010890 C 
     97. D(C   2,C   1,C   0,H   5)   -156.5718         0.010890   
     98. D(H   9,C   2,C   1,H   6)    160.0777         0.009912   
     99. D(H   8,C   2,C   1,C   0)    156.5478         0.009912   
    100. D(H   8,C   2,C   1,H   6)     39.6450         0.009912   
    101. D(C   3,C   2,C   1,C   0)     35.0268         0.009912 C 
    102. D(H   8,C   2,C   1,H   7)    -81.9750         0.009912   
    103. D(H   9,C   2,C   1,C   0)    -83.0196         0.009912   
    104. D(C   3,C   2,C   1,H   6)    -81.8760         0.009912   
    105. D(H   9,C   2,C   1,H   7)     38.4577         0.009912   
    106. D(C   3,C   2,C   1,H   7)    156.5040         0.009912   
    107. D(H  11,C   3,C   2,H   9)   -143.4626         0.009774   
    108. D(O   4,C   3,C   2,H   8)   -140.0068         0.009774   
    109. D(O   4,C   3,C   2,H   9)     99.4741         0.009774   
    110. D(H  10,C   3,C   2,C   1)   -137.7432         0.009774   
    111. D(H  10,C   3,C   2,H   8)    100.4467         0.009774   
    112. D(H  10,C   3,C   2,H   9)    -20.0724         0.009774   
    113. D(H  11,C   3,C   2,C   1)     98.8666         0.009774   
    114. D(O   4,C   3,C   2,C   1)    -18.1967         0.009774 C 
    115. D(H  11,C   3,C   2,H   8)    -22.9435         0.009774   
    116. D(C   3,O   4,C   0,C   1)     29.5920         0.014035 C 
    117. D(C   3,O   4,C   0,H   5)    151.2040         0.014035   
    118. D(C   3,O   4,C   0,O  15)    -90.0765         0.014035   
    119. D(C   0,O   4,C   3,C   2)     -6.8730         0.012866 C 
    120. D(C   0,O   4,C   3,H  10)    114.8547         0.012866   
    121. D(C   0,O   4,C   3,H  11)   -127.4270         0.012866   
    122. D(C   0,O  15,C  12,C  16)     90.0000         0.007756 C 
    123. D(C  12,O  15,C   0,O   4)   -120.0000         0.007793 C 
    124. D(C  12,O  15,C   0,H   5)     -2.5899         0.007793   
    125. D(C   0,O  15,C  12,H  14)    -30.5411         0.007756   
    126. D(C   0,O  15,C  12,H  13)   -149.5156         0.007756   
    127. D(C  12,O  15,C   0,C   1)    124.6819         0.007793   
    128. D(C  17,C  16,C  12,H  13)   -176.3703         0.009477   
    129. D(H  21,C  16,C  12,H  14)    -60.4628         0.009477   
    130. D(C  17,C  16,C  12,O  15)    -55.3277         0.009477   
    131. D(O  20,C  16,C  12,H  13)    -61.0195         0.009477   
    132. D(O  20,C  16,C  12,H  14)   -177.8623         0.009477   
    133. D(O  20,C  16,C  12,O  15)     60.0231         0.009477 C 
    134. D(C  17,C  16,C  12,H  14)     66.7869         0.009477   
    135. D(H  21,C  16,C  12,H  13)     56.3800         0.009477   
    136. D(H  21,C  16,C  12,O  15)    177.4226         0.009477   
    137. D(C  18,C  17,C  16,C  12)     79.1041         0.010917   
    138. D(C  18,C  17,C  16,O  20)    -40.0160         0.010917 C 
    139. D(C  18,C  17,C  16,H  21)   -156.6005         0.010917   
    140. D(H  22,C  17,C  16,C  12)   -163.6070         0.010917   
    141. D(H  22,C  17,C  16,O  20)     77.2729         0.010917   
    142. D(H  22,C  17,C  16,H  21)    -39.3116         0.010917   
    143. D(O  23,C  17,C  16,C  12)    -42.1528         0.010917   
    144. D(O  23,C  17,C  16,O  20)   -161.2729         0.010917   
    145. D(O  23,C  17,C  16,H  21)     82.1427         0.010917   
    146. D(H  24,C  18,C  17,O  23)    -81.9872         0.009874   
    147. D(C  19,C  18,C  17,H  22)    -81.8880         0.009874   
    148. D(C  19,C  18,C  17,O  23)    156.5225         0.009874   
    149. D(H  24,C  18,C  17,C  16)    156.4944         0.009874   
    150. D(C  19,C  18,C  17,C  16)     35.0040         0.009874 C 
    151. D(H  24,C  18,C  17,H  22)     39.6024         0.009874   
    152. D(H  25,C  18,C  17,C  16)    -83.0789         0.009874   
    153. D(H  25,C  18,C  17,H  22)    160.0291         0.009874   
    154. D(H  25,C  18,C  17,O  23)     38.4396         0.009874   
    155. D(H  27,C  19,C  18,H  25)   -143.5119         0.009746   
    156. D(O  20,C  19,C  18,H  24)   -139.9850         0.009746   
    157. D(O  20,C  19,C  18,H  25)     99.5225         0.009746   
    158. D(H  26,C  19,C  18,C  17)   -137.7643         0.009746   
    159. D(H  26,C  19,C  18,H  24)    100.4111         0.009746   
    160. D(H  26,C  19,C  18,H  25)    -20.0814         0.009746   
    161. D(H  27,C  19,C  18,C  17)     98.8051         0.009746   
    162. D(O  20,C  19,C  18,C  17)    -18.1605         0.009746 C 
    163. D(H  27,C  19,C  18,H  24)    -23.0194         0.009746   
    164. D(C  19,O  20,C  16,C  12)    -90.0678         0.014116   
    165. D(C  19,O  20,C  16,C  17)     29.6272         0.014116 C 
    166. D(C  19,O  20,C  16,H  21)    151.2547         0.014116   
    167. D(C  16,O  20,C  19,C  18)     -6.9067         0.012822 C 
    168. D(C  16,O  20,C  19,H  26)    114.8268         0.012822   
    169. D(C  16,O  20,C  19,H  27)   -127.3532         0.012822   
    170. D(H  28,O  23,C  17,C  16)     57.6345         0.007749   
    171. D(H  28,O  23,C  17,C  18)    -57.1140         0.007749   
    172. D(H  28,O  23,C  17,H  22)   -179.9631         0.007749   
    -----------------------------------------------------------------

Number of atoms                         .... 29
Number of degrees of freedom            .... 172

Time needed for optimization step       :     4.81 sec

         *************************************************************
         *                GEOMETRY OPTIMIZATION CYCLE   1            *
         *************************************************************
---------------------------------
CARTESIAN COORDINATES (ANGSTROEM)
---------------------------------
  C    -21.047985   26.222130   46.250796
  C    -20.361050   27.558198   45.944001
  C    -20.329020   28.221934   47.341116
  C    -20.109942   27.021782   48.295910
  O    -20.472930   25.806894   47.534702
  H    -20.832987   25.428230   45.532684
  H    -19.344054   27.382303   45.575938
  H    -20.898095   28.157307   45.201121
  H    -19.543042   28.977944   47.434221
  H    -21.289031   28.709861   47.548237
  H    -20.732913   27.081608   49.194942
  H    -19.063928   26.912768   48.596856
  C    -23.429955   25.482894   45.441924
  H    -24.363986   25.995824   45.182896
  H    -22.883937   25.273888   44.512936
  O    -22.585995   26.393979   46.374877
  C    -23.786970   24.119947   46.097025
  C    -22.528988   23.381983   46.569125
  C    -22.217036   24.113088   47.897077
  C    -23.624055   24.440135   48.458004
  O    -24.565016   24.328046   47.321979
  H    -24.415951   23.547895   45.412051
  H    -22.758995   22.326998   46.754202
  O    -21.357954   23.456900   45.551159
  H    -21.624061   23.505143   48.588146
  H    -21.657029   25.034072   47.697023
  H    -23.684067   25.449169   48.876922
  H    -23.948081   23.721197   49.216051
  H    -21.110945   24.505883   45.352083

----------------------------
CARTESIAN COORDINATES (A.U.)
----------------------------
  NO LB      ZA    FRAG     MASS         X           Y           Z
   0 C     6.0000    0    12.011  -39.774927   49.552644   87.401338
   1 C     6.0000    0    12.011  -38.476807   52.077447   86.821579
   2 C     6.0000    0    12.011  -38.416281   53.331726   89.461744
   3 C     6.0000    0    12.011  -38.002283   51.063768   91.266043
   4 O     8.0000    0    15.999  -38.688231   48.767961   89.827569
   5 H     1.0000    0     1.008  -39.368640   48.052392   86.044303
   6 H     1.0000    0     1.008  -36.554964   51.745054   86.126042
   7 H     1.0000    0     1.008  -39.491676   53.209598   85.417739
   8 H     1.0000    0     1.008  -36.930998   54.760378   89.637687
   9 H     1.0000    0     1.008  -40.230438   54.253775   89.853145
  10 H     1.0000    0     1.008  -39.179527   51.176822   92.964967
  11 H     1.0000    0     1.008  -36.025603   50.857760   91.834748
  12 C     6.0000    0    12.011  -44.276199   48.155691   85.872791
  13 H     1.0000    0     1.008  -46.041262   49.124987   85.383300
  14 H     1.0000    0     1.008  -43.244375   47.760727   84.117258
  15 O     8.0000    0    15.999  -42.681345   49.877392   87.635817
  16 C     6.0000    0    12.011  -44.950859   45.580093   87.110752
  17 C     6.0000    0    12.011  -42.573618   44.185545   88.002893
  18 C     6.0000    0    12.011  -41.984114   45.567133   90.512358
  19 C     6.0000    0    12.011  -44.642993   46.185163   91.572357
  20 O     8.0000    0    15.999  -46.421154   45.973344   89.425581
  21 H     1.0000    0     1.008  -46.139462   44.499073   85.816339
  22 H     1.0000    0     1.008  -43.008269   42.191912   88.352637
  23 O     8.0000    0    15.999  -40.360683   44.327116   86.079215
  24 H     1.0000    0     1.008  -40.863553   44.418283   91.818289
  25 H     1.0000    0     1.008  -40.925853   47.307540   90.134310
  26 H     1.0000    0     1.008  -44.756400   48.091960   92.363996
  27 H     1.0000    0     1.008  -45.255315   44.826565   93.004857
  28 H     1.0000    0     1.008  -39.893905   46.309408   85.703016

--------------------------------
INTERNAL COORDINATES (ANGSTROEM)
--------------------------------
 C      0   0   0     0.000000000000     0.00000000     0.00000000
 C      1   0   0     1.533334275362     0.00000000     0.00000000
 C      2   1   0     1.547103422529   101.67907390     0.00000000
 C      3   2   1     1.549188819996   103.12737509    35.02687180
 O      1   2   3     1.466801281701   104.24948604   319.98542309
 H      1   2   3     1.091872245274   114.43876658   203.42640133
 H      2   1   3     1.095759553917   110.06782188   117.34000099
 H      2   1   3     1.095088580892   113.12442239   238.72597460
 H      3   2   1     1.094523183857   112.83161078   156.54780790
 H      3   2   1     1.096628013503   110.07982737   276.98070077
 H      4   3   2     1.095413164062   112.52534669   222.25678475
 H      4   3   2     1.093891219455   112.45670684    98.86663270
 C      6   1   2     2.599175830913    79.09917363   235.95714621
 H     13   6   1     1.096633940748   150.36022249    67.19668150
 H     13   6   1     1.097651128547    61.87434799   144.36191086
 O      1   2   3     1.552547583812   111.30349807    79.08752829
 C     13   6   1     1.553783446945   101.31764310   248.52072365
 C     17  13   6     1.532968362361   111.31857946     2.93900391
 C     18  17  13     1.547672122899   101.66830053    79.10389466
 C     19  18  17     1.549612532216   103.13642655    35.00403630
 O     17  13   6     1.466005798079   110.47033393   118.28935108
 H     17  13   6     1.091810423105   109.11463554   235.68955790
 H     18  17  13     1.095513578191   110.07937155   196.39287612
 O     18  17  13     1.553444559680   113.17764906   317.84712768
 H     19  18  17     1.094894515467   112.85709098   156.49437257
 H     19  18  17     1.096285090658   110.07436587   276.92117087
 H     20  19  18     1.094185541853   112.52040678   222.23567049
 H     20  19  18     1.093846881424   112.40233672    98.80515060
 H      6   1   2     0.979861724939   138.57767882   185.29712256

---------------------------
INTERNAL COORDINATES (A.U.)
---------------------------
 C      0   0   0     0.000000000000     0.00000000     0.00000000
 C      1   0   0     2.897581852189     0.00000000     0.00000000
 C      2   1   0     2.923601769431   101.67907390     0.00000000
 C      3   2   1     2.927542599525   103.12737509    35.02687180
 O      1   2   3     2.771852715300   104.24948604   319.98542309
 H      1   2   3     2.063339516798   114.43876658   203.42640133
 H      2   1   3     2.070685465531   110.06782188   117.34000099
 H      2   1   3     2.069417510270   113.12442239   238.72597460
 H      3   2   1     2.068349064717   112.83161078   156.54780790
 H      3   2   1     2.072326616307   110.07982737   276.98070077
 H      4   3   2     2.070030883569   112.52534669   222.25678475
 H      4   3   2     2.067154825070   112.45670684    98.86663270
 C      6   1   2     4.911730494332    79.09917363   235.95714621
 H     13   6   1     2.072337817176   150.36022249    67.19668150
 H     13   6   1     2.074260023543    61.87434799   144.36191086
 O      1   2   3     2.933889743286   111.30349807    79.08752829
 C     13   6   1     2.936225186146   101.31764310   248.52072365
 C     17  13   6     2.896890376828   111.31857946     2.93900391
 C     18  17  13     2.924676457384   101.66830053    79.10389466
 C     19  18  17     2.928343299580   103.13642655    35.00403630
 O     17  13   6     2.770349469109   110.47033393   118.28935108
 H     17  13   6     2.063222689829   109.11463554   235.68955790
 H     18  17  13     2.070220638772   110.07937155   196.39287612
 O     18  17  13     2.935584782025   113.17764906   317.84712768
 H     19  18  17     2.069050779765   112.85709098   156.49437257
 H     19  18  17     2.071678586045   110.07436587   276.92117087
 H     20  19  18     2.067711013798   112.52040678   222.23567049
 H     20  19  18     2.067071038334   112.40233672    98.80515060
 H      6   1   2     1.851670309246   138.57767882   185.29712256

---------------------
BASIS SET INFORMATION
---------------------
There are 3 groups of distinct atoms

 Group   1 Type C   : 10s4p contracted to 3s2p pattern {631/31}
 Group   2 Type O   : 10s4p contracted to 3s2p pattern {631/31}
 Group   3 Type H   : 4s contracted to 2s pattern {31}

Atom   0C    basis set group =>   1
Atom   1C    basis set group =>   1
Atom   2C    basis set group =>   1
Atom   3C    basis set group =>   1
Atom   4O    basis set group =>   2
Atom   5H    basis set group =>   3
Atom   6H    basis set group =>   3
Atom   7H    basis set group =>   3
Atom   8H    basis set group =>   3
Atom   9H    basis set group =>   3
Atom  10H    basis set group =>   3
Atom  11H    basis set group =>   3
Atom  12C    basis set group =>   1
Atom  13H    basis set group =>   3
Atom  14H    basis set group =>   3
Atom  15O    basis set group =>   2
Atom  16C    basis set group =>   1
Atom  17C    basis set group =>   1
Atom  18C    basis set group =>   1
Atom  19C    basis set group =>   1
Atom  20O    basis set group =>   2
Atom  21H    basis set group =>   3
Atom  22H    basis set group =>   3
Atom  23O    basis set group =>   2
Atom  24H    basis set group =>   3
Atom  25H    basis set group =>   3
Atom  26H    basis set group =>   3
Atom  27H    basis set group =>   3
Atom  28H    basis set group =>   3
------------------------------------------------------------------------------
                           ORCA GTO INTEGRAL CALCULATION
------------------------------------------------------------------------------

                         BASIS SET STATISTICS AND STARTUP INFO

 # of primitive gaussian shells          ...  246
 # of primitive gaussian functions       ...  350
 # of contracted shells                  ...   97
 # of contracted basis functions         ...  149
 Highest angular momentum                ...    1
 Maximum contraction depth               ...    6
 Integral package used                   ... LIBINT
 Integral threshhold            Thresh   ...  2.500e-11
 Primitive cut-off              TCut     ...  2.500e-12


------------------------------ INTEGRAL EVALUATION ----------------------------


 * One electron integrals 
 Pre-screening matrix                    ... done
 Shell pair data                         ... done (   0.002 sec)

-------------------------------------------------------------------------------
                                 ORCA SCF
-------------------------------------------------------------------------------

------------
SCF SETTINGS
------------
Hamiltonian:
 Density Functional     Method          .... DFT(GTOs)
 Exchange Functional    Exchange        .... B88
   X-Alpha parameter    XAlpha          ....  0.666667
   Becke's b parameter  XBeta           ....  0.004200
 Correlation Functional Correlation     .... LYP
 LDA part of GGA corr.  LDAOpt          .... VWN-5
 Gradients option       PostSCFGGA      .... off
 Hybrid DFT is turned on
   Fraction HF Exchange ScalHFX         ....  0.200000
   Scaling of DF-GGA-X  ScalDFX         ....  0.720000
   Scaling of DF-GGA-C  ScalDFC         ....  0.810000
   Scaling of DF-LDA-C  ScalLDAC        ....  1.000000
   Perturbative correction              ....  0.000000
   Density functional embedding theory  .... OFF
   NL short-range parameter             ....  4.800000


General Settings:
 Integral files         IntName         .... project_8049/ensemble_240_90
 Hartree-Fock type      HFTyp           .... RHF
 Total Charge           Charge          ....    0
 Multiplicity           Mult            ....    1
 Number of Electrons    NEL             ....  102
 Basis Dimension        Dim             ....  149
 Nuclear Repulsion      ENuc            ....    928.1951329200 Eh

Convergence Acceleration:
 DIIS                   CNVDIIS         .... on
   Start iteration      DIISMaxIt       ....    12
   Startup error        DIISStart       ....  0.200000
   # of expansion vecs  DIISMaxEq       ....     5
   Bias factor          DIISBfac        ....   1.050
   Max. coefficient     DIISMaxC        ....  10.000
 Newton-Raphson         CNVNR           .... off
 SOSCF                  CNVSOSCF        .... on
   Start iteration      SOSCFMaxIt      ....   150
   Startup grad/error   SOSCFStart      ....  0.003300
 Level Shifting         CNVShift        .... on
   Level shift para.    LevelShift      ....    0.2500
   Turn off err/grad.   ShiftErr        ....    0.0010
 Zerner damping         CNVZerner       .... off
 Static damping         CNVDamp         .... on
   Fraction old density DampFac         ....    0.7000
   Max. Damping (<1)    DampMax         ....    0.9800
   Min. Damping (>=0)   DampMin         ....    0.0000
   Turn off err/grad.   DampErr         ....    0.1000
 Fernandez-Rico         CNVRico         .... off

SCF Procedure:
 Maximum # iterations   MaxIter         ....   125
 SCF integral mode      SCFMode         .... Direct
   Integral package                     .... LIBINT
 Reset frequency        DirectResetFreq ....    20
 Integral Threshold     Thresh          ....  2.500e-11 Eh
 Primitive CutOff       TCut            ....  2.500e-12 Eh

Convergence Tolerance:
 Convergence Check Mode ConvCheckMode   .... Total+1el-Energy
 Convergence forced     ConvForced      .... 0
 Energy Change          TolE            ....  1.000e-08 Eh
 1-El. energy change                    ....  1.000e-05 Eh
 Orbital Gradient       TolG            ....  1.000e-05
 Orbital Rotation angle TolX            ....  1.000e-05
 DIIS Error             TolErr          ....  5.000e-07


Diagonalization of the overlap matrix:
Smallest eigenvalue                        ... 3.548e-03
Time for diagonalization                   ...    0.007 sec
Threshold for overlap eigenvalues          ... 1.000e-08
Number of eigenvalues below threshold      ... 0
Time for construction of square roots      ...    0.743 sec
Total time needed                          ...    0.751 sec

-------------------
DFT GRID GENERATION
-------------------

General Integration Accuracy     IntAcc      ...  4.340
Radial Grid Type                 RadialGrid  ... Gauss-Chebyshev
Angular Grid (max. acc.)         AngularGrid ... Lebedev-110
Angular grid pruning method      GridPruning ... 3 (G Style)
Weight generation scheme         WeightScheme... Becke
Basis function cutoff            BFCut       ...    1.0000e-11
Integration weight cutoff        WCut        ...    1.0000e-14
Grids for H and He will be reduced by one unit

# of grid points (after initial pruning)     ...  34472 (   0.0 sec)
# of grid points (after weights+screening)   ...  30728 (   0.2 sec)
nearest neighbour list constructed           ...    0.0 sec
Grid point re-assignment to atoms done       ...    0.0 sec
Grid point division into batches done        ...    0.0 sec
Reduced shell lists constructed in    0.4 sec

Total number of grid points                  ...    30728
Total number of batches                      ...      493
Average number of points per batch           ...       62
Average number of grid points per atom       ...     1060
Average number of shells per batch           ...    64.44 (66.43%)
Average number of basis functions per batch  ...   104.56 (70.17%)
Average number of large shells per batch     ...    46.42 (72.04%)
Average number of large basis fcns per batch ...    77.00 (73.64%)
Maximum spatial batch extension              ...  19.24, 18.72, 21.12 au
Average spatial batch extension              ...   3.30,  3.31,  3.42 au

Time for grid setup =    2.216 sec

------------------------------
INITIAL GUESS: MODEL POTENTIAL
------------------------------
Loading Hartree-Fock densities                     ... done
Calculating cut-offs                               ... done
Setting up the integral package                    ... done
Initializing the effective Hamiltonian             ... done
Starting the Coulomb interaction                   ... done (   0.3 sec)
Reading the grid                                   ... done
Mapping shells                                     ... done
Starting the XC term evaluation                    ... done (   0.4 sec)
  promolecular density results
     # of electrons  =    102.005824692
     EX              =    -83.755526044
     EC              =     -3.478643541
     EX+EC           =    -87.234169586
Transforming the Hamiltonian                       ... done (   0.4 sec)
Diagonalizing the Hamiltonian                      ... done (   0.0 sec)
Back transforming the eigenvectors                 ... done (   0.0 sec)
Now organizing SCF variables                       ... done
                      ------------------
                      INITIAL GUESS DONE (   5.0 sec)
                      ------------------
--------------
SCF ITERATIONS
--------------
ITER       Energy         Delta-E        Max-DP      RMS-DP      [F,P]     Damp
               ***  Starting incremental Fock matrix formation  ***
  0   -652.4496521359   0.000000000000 0.08426115  0.00328095  0.2420409 0.7000
  1   -652.5920765327  -0.142424396802 0.04892834  0.00225690  0.0978811 0.7000
                               ***Turning on DIIS***
  2   -652.6453094004  -0.053232867673 0.06088577  0.00360453  0.0297624 0.0000
  3   -652.7339735902  -0.088664189825 0.03377302  0.00149600  0.0546508 0.0000
  4   -652.7514003923  -0.017426802043 0.01088965  0.00045929  0.0120890 0.0000
  5   -652.7524630732  -0.001062680891 0.00337381  0.00014300  0.0047094 0.0000
                      *** Initiating the SOSCF procedure ***
                           *** Shutting down DIIS ***
                      *** Re-Reading the Fockian *** 
                      *** Removing any level shift *** 
ITER      Energy       Delta-E        Grad      Rot      Max-DP    RMS-DP
  6   -652.75254126  -0.0000781822  0.000277  0.000277  0.001307  0.000064
               *** Restarting incremental Fock matrix formation ***
  7   -652.75254458  -0.0000033262  0.000144  0.000253  0.001235  0.000036
  8   -652.75254239   0.0000021930  0.000217  0.000152  0.000715  0.000022
  9   -652.75254618  -0.0000037960  0.000032  0.000049  0.000184  0.000008
 10   -652.75254609   0.0000000901  0.000046  0.000028  0.000128  0.000005
 11   -652.75254625  -0.0000001538  0.000004  0.000009  0.000030  0.000001
 12   -652.75254624   0.0000000034  0.000007  0.000006  0.000020  0.000001
                  ***Gradient check signals convergence***
              ***Rediagonalizing the Fockian in SOSCF/NRSCF***

               *****************************************************
               *                     SUCCESS                       *
               *           SCF CONVERGED AFTER  13 CYCLES          *
               *****************************************************

Setting up the final grid:

General Integration Accuracy     IntAcc      ...  4.670
Radial Grid Type                 RadialGrid  ... Gauss-Chebyshev
Angular Grid (max. acc.)         AngularGrid ... Lebedev-302
Angular grid pruning method      GridPruning ... 3 (G Style)
Weight generation scheme         WeightScheme... Becke
Basis function cutoff            BFCut       ...    1.0000e-11
Integration weight cutoff        WCut        ...    1.0000e-14
Grids for H and He will be reduced by one unit

# of grid points (after initial pruning)     ... 135060 (   0.1 sec)
# of grid points (after weights+screening)   ... 117778 (   0.9 sec)
nearest neighbour list constructed           ...    0.0 sec
Grid point re-assignment to atoms done       ...    0.0 sec
Grid point division into batches done        ...    0.4 sec
Reduced shell lists constructed in    1.5 sec

Total number of grid points                  ...   117778
Total number of batches                      ...     1856
Average number of points per batch           ...       63
Average number of grid points per atom       ...     4061
Average number of shells per batch           ...    59.15 (60.98%)
Average number of basis functions per batch  ...    96.34 (64.66%)
Average number of large shells per batch     ...    41.53 (70.21%)
Average number of large basis fcns per batch ...    69.06 (71.68%)
Maximum spatial batch extension              ...  19.00, 19.03, 18.61 au
Average spatial batch extension              ...   2.17,  2.18,  2.19 au

Final grid set up in    7.5 sec
Final integration                            ... done (  16.2 sec)
Change in XC energy                          ...     0.001053109
Integrated number of electrons               ...   101.999261665
Previous integrated no of electrons          ...   102.006802215

----------------
TOTAL SCF ENERGY
----------------

Total Energy       :         -652.75149314 Eh          -17762.27114 eV

Components:
Nuclear Repulsion  :          928.19513292 Eh           25257.47363 eV
Electronic Energy  :        -1580.94662606 Eh          -43019.74478 eV
One Electron Energy:        -2733.79458660 Eh          -74390.33263 eV
Two Electron Energy:         1152.84796054 Eh           31370.58786 eV

Virial components:
Potential Energy   :        -1302.14787273 Eh          -35433.24501 eV
Kinetic Energy     :          649.39637959 Eh           17670.97386 eV
Virial Ratio       :            2.00516651


DFT components:
N(Alpha)           :       50.999630832554 electrons
N(Beta)            :       50.999630832554 electrons
N(Total)           :      101.999261665108 electrons
E(X)               :      -67.666669592294 Eh       
E(C)               :       -4.085929156536 Eh       
E(XC)              :      -71.752598748830 Eh       
DFET-embed. en.    :        0.000000000000 Eh       

---------------
SCF CONVERGENCE
---------------

  Last Energy change         ...   -5.3953e-09  Tolerance :   1.0000e-08
  Last MAX-Density change    ...    5.3947e-06  Tolerance :   1.0000e-07
  Last RMS-Density change    ...    1.7334e-07  Tolerance :   5.0000e-09
  Last Orbital Gradient      ...    5.4586e-07  Tolerance :   1.0000e-05
  Last Orbital Rotation      ...    9.5947e-07  Tolerance :   1.0000e-05

             **** THE GBW FILE WAS UPDATED (project_8049/ensemble_240_90.gbw) ****
             **** DENSITY FILE WAS UPDATED (project_8049/ensemble_240_90.scfp) ****
             **** ENERGY FILE WAS UPDATED (project_8049/ensemble_240_90.en.tmp) ****
             **** THE GBW FILE WAS UPDATED (project_8049/ensemble_240_90.gbw) ****
             **** DENSITY FILE WAS UPDATED (project_8049/ensemble_240_90.scfp) ****
----------------
ORBITAL ENERGIES
----------------

  NO   OCC          E(Eh)            E(eV) 
   0   2.0000     -19.181040      -521.9426 
   1   2.0000     -19.167217      -521.5665 
   2   2.0000     -19.125335      -520.4268 
   3   2.0000     -19.122184      -520.3411 
   4   2.0000     -10.318268      -280.7743 
   5   2.0000     -10.250147      -278.9207 
   6   2.0000     -10.240125      -278.6480 
   7   2.0000     -10.227543      -278.3056 
   8   2.0000     -10.222990      -278.1817 
   9   2.0000     -10.212427      -277.8943 
  10   2.0000     -10.206499      -277.7330 
  11   2.0000     -10.201374      -277.5935 
  12   2.0000     -10.128867      -275.6205 
  13   2.0000      -1.078084       -29.3362 
  14   2.0000      -1.009576       -27.4720 
  15   2.0000      -0.985592       -26.8193 
  16   2.0000      -0.955629       -26.0040 
  17   2.0000      -0.812694       -22.1145 
  18   2.0000      -0.774920       -21.0866 
  19   2.0000      -0.749874       -20.4051 
  20   2.0000      -0.740831       -20.1590 
  21   2.0000      -0.670630       -18.2488 
  22   2.0000      -0.638853       -17.3841 
  23   2.0000      -0.626609       -17.0509 
  24   2.0000      -0.580289       -15.7905 
  25   2.0000      -0.558760       -15.2046 
  26   2.0000      -0.538853       -14.6629 
  27   2.0000      -0.517168       -14.0728 
  28   2.0000      -0.499730       -13.5984 
  29   2.0000      -0.496848       -13.5199 
  30   2.0000      -0.474898       -12.9226 
  31   2.0000      -0.451095       -12.2749 
  32   2.0000      -0.439826       -11.9683 
  33   2.0000      -0.425319       -11.5735 
  34   2.0000      -0.415131       -11.2963 
  35   2.0000      -0.412315       -11.2197 
  36   2.0000      -0.404866       -11.0170 
  37   2.0000      -0.389104       -10.5881 
  38   2.0000      -0.380427       -10.3520 
  39   2.0000      -0.373851       -10.1730 
  40   2.0000      -0.368663       -10.0318 
  41   2.0000      -0.362904        -9.8751 
  42   2.0000      -0.344196        -9.3661 
  43   2.0000      -0.339399        -9.2355 
  44   2.0000      -0.323460        -8.8018 
  45   2.0000      -0.297735        -8.1018 
  46   2.0000      -0.290441        -7.9033 
  47   2.0000      -0.276879        -7.5343 
  48   2.0000      -0.247146        -6.7252 
  49   2.0000      -0.239437        -6.5154 
  50   2.0000      -0.225493        -6.1360 
  51   0.0000       0.030953         0.8423 
  52   0.0000       0.052232         1.4213 
  53   0.0000       0.077015         2.0957 
  54   0.0000       0.086113         2.3433 
  55   0.0000       0.101728         2.7681 
  56   0.0000       0.107630         2.9288 
  57   0.0000       0.111078         3.0226 
  58   0.0000       0.116910         3.1813 
  59   0.0000       0.129997         3.5374 
  60   0.0000       0.133827         3.6416 
  61   0.0000       0.144143         3.9223 
  62   0.0000       0.148779         4.0485 
  63   0.0000       0.153533         4.1779 
  64   0.0000       0.161283         4.3887 
  65   0.0000       0.166035         4.5180 
  66   0.0000       0.180056         4.8996 
  67   0.0000       0.188554         5.1308 
  68   0.0000       0.196253         5.3403 
  69   0.0000       0.201790         5.4910 
  70   0.0000       0.210925         5.7396 
  71   0.0000       0.215384         5.8609 
  72   0.0000       0.229829         6.2540 
  73   0.0000       0.239085         6.5058 
  74   0.0000       0.248767         6.7693 
  75   0.0000       0.256709         6.9854 
  76   0.0000       0.281543         7.6612 
  77   0.0000       0.295623         8.0443 
  78   0.0000       0.312275         8.4974 
  79   0.0000       0.365512         9.9461 
  80   0.0000       0.384785        10.4705 
  81   0.0000       0.504048        13.7158 
  82   0.0000       0.524345        14.2682 
  83   0.0000       0.531821        14.4716 
  84   0.0000       0.558941        15.2096 
  85   0.0000       0.560924        15.2635 
  86   0.0000       0.574118        15.6225 
  87   0.0000       0.586004        15.9460 
  88   0.0000       0.588194        16.0056 
  89   0.0000       0.590978        16.0813 
  90   0.0000       0.596790        16.2395 
  91   0.0000       0.598950        16.2983 
  92   0.0000       0.611986        16.6530 
  93   0.0000       0.622640        16.9429 
  94   0.0000       0.634633        17.2692 
  95   0.0000       0.660408        17.9706 
  96   0.0000       0.668048        18.1785 
  97   0.0000       0.677679        18.4406 
  98   0.0000       0.687444        18.7063 
  99   0.0000       0.709489        19.3062 
 100   0.0000       0.729198        19.8425 
 101   0.0000       0.745707        20.2917 
 102   0.0000       0.785728        21.3808 
 103   0.0000       0.797217        21.6934 
 104   0.0000       0.807888        21.9837 
 105   0.0000       0.824973        22.4487 
 106   0.0000       0.848026        23.0760 
 107   0.0000       0.865235        23.5442 
 108   0.0000       0.871948        23.7269 
 109   0.0000       0.882080        24.0026 
 110   0.0000       0.892919        24.2976 
 111   0.0000       0.915110        24.9014 
 112   0.0000       0.916976        24.9522 
 113   0.0000       0.922798        25.1106 
 114   0.0000       0.928843        25.2751 
 115   0.0000       0.934881        25.4394 
 116   0.0000       0.945536        25.7293 
 117   0.0000       0.949390        25.8342 
 118   0.0000       0.963836        26.2273 
 119   0.0000       0.979709        26.6592 
 120   0.0000       0.980876        26.6910 
 121   0.0000       1.008479        27.4421 
 122   0.0000       1.023642        27.8547 
 123   0.0000       1.040499        28.3134 
 124   0.0000       1.066399        29.0182 
 125   0.0000       1.099234        29.9117 
 126   0.0000       1.115732        30.3606 
 127   0.0000       1.156409        31.4675 
 128   0.0000       1.176975        32.0271 
 129   0.0000       1.210786        32.9472 
 130   0.0000       1.252469        34.0814 
 131   0.0000       1.276469        34.7345 
 132   0.0000       1.314387        35.7663 
 133   0.0000       1.326696        36.1012 
 134   0.0000       1.380111        37.5547 
 135   0.0000       1.419781        38.6342 
 136   0.0000       1.437160        39.1071 
 137   0.0000       1.465997        39.8918 
 138   0.0000       1.514587        41.2140 
 139   0.0000       1.536465        41.8093 
 140   0.0000       1.599740        43.5311 
 141   0.0000       1.616787        43.9950 
 142   0.0000       1.670654        45.4608 
 143   0.0000       1.748631        47.5827 
 144   0.0000       1.863427        50.7064 
 145   0.0000       1.913148        52.0594 
 146   0.0000       2.028539        55.1993 
 147   0.0000       2.103747        57.2459 
 148   0.0000       2.220970        60.4357 

                    ********************************
                    * MULLIKEN POPULATION ANALYSIS *
                    ********************************

-----------------------
MULLIKEN ATOMIC CHARGES
-----------------------
   0 C :    0.250314
   1 C :   -0.269571
   2 C :   -0.299915
   3 C :   -0.008737
   4 O :   -0.510823
   5 H :    0.115839
   6 H :    0.161402
   7 H :    0.168063
   8 H :    0.153046
   9 H :    0.174839
  10 H :    0.162341
  11 H :    0.159620
  12 C :   -0.062561
  13 H :    0.170967
  14 H :    0.135463
  15 O :   -0.491903
  16 C :    0.085977
  17 C :    0.068375
  18 C :   -0.345645
  19 C :    0.001559
  20 O :   -0.522379
  21 H :    0.148924
  22 H :    0.153662
  23 O :   -0.610592
  24 H :    0.116646
  25 H :    0.294374
  26 H :    0.128293
  27 H :    0.127854
  28 H :    0.344567
Sum of atomic charges:    0.0000000

--------------------------------
MULLIKEN REDUCED ORBITAL CHARGES
--------------------------------
  0 C s       :     3.231307  s :     3.231307
      pz      :     0.770213  p :     2.518378
      px      :     0.714788
      py      :     1.033378
  1 C s       :     3.315602  s :     3.315602
      pz      :     0.990103  p :     2.953969
      px      :     1.030732
      py      :     0.933134
  2 C s       :     3.319590  s :     3.319590
      pz      :     0.896258  p :     2.980325
      px      :     1.098017
      py      :     0.986050
  3 C s       :     3.268301  s :     3.268301
      pz      :     0.941402  p :     2.740435
      px      :     1.068083
      py      :     0.730951
  4 O s       :     3.951346  s :     3.951346
      pz      :     1.318183  p :     4.559477
      px      :     1.727629
      py      :     1.513665
  5 H s       :     0.884161  s :     0.884161
  6 H s       :     0.838598  s :     0.838598
  7 H s       :     0.831937  s :     0.831937
  8 H s       :     0.846954  s :     0.846954
  9 H s       :     0.825161  s :     0.825161
 10 H s       :     0.837659  s :     0.837659
 11 H s       :     0.840380  s :     0.840380
 12 C s       :     3.304312  s :     3.304312
      pz      :     0.877466  p :     2.758249
      px      :     0.980481
      py      :     0.900302
 13 H s       :     0.829033  s :     0.829033
 14 H s       :     0.864537  s :     0.864537
 15 O s       :     3.950209  s :     3.950209
      pz      :     1.653747  p :     4.541694
      px      :     1.205424
      py      :     1.682523
 16 C s       :     3.254169  s :     3.254169
      pz      :     0.809797  p :     2.659854
      px      :     0.898848
      py      :     0.951208
 17 C s       :     3.289625  s :     3.289625
      pz      :     0.840783  p :     2.642000
      px      :     0.762777
      py      :     1.038440
 18 C s       :     3.335967  s :     3.335967
      pz      :     0.931673  p :     3.009677
      px      :     0.961901
      py      :     1.116104
 19 C s       :     3.258673  s :     3.258673
      pz      :     0.821046  p :     2.739768
      px      :     0.846245
      py      :     1.072477
 20 O s       :     3.943817  s :     3.943817
      pz      :     1.165713  p :     4.578562
      px      :     1.550784
      py      :     1.862065
 21 H s       :     0.851076  s :     0.851076
 22 H s       :     0.846338  s :     0.846338
 23 O s       :     3.947885  s :     3.947885
      pz      :     1.652319  p :     4.662707
      px      :     1.577332
      py      :     1.433056
 24 H s       :     0.883354  s :     0.883354
 25 H s       :     0.705626  s :     0.705626
 26 H s       :     0.871707  s :     0.871707
 27 H s       :     0.872146  s :     0.872146
 28 H s       :     0.655433  s :     0.655433


                     *******************************
                     * LOEWDIN POPULATION ANALYSIS *
                     *******************************

----------------------
LOEWDIN ATOMIC CHARGES
----------------------
   0 C :    0.181156
   1 C :   -0.211692
   2 C :   -0.213390
   3 C :   -0.023845
   4 O :   -0.292426
   5 H :    0.104379
   6 H :    0.122291
   7 H :    0.130543
   8 H :    0.120029
   9 H :    0.125264
  10 H :    0.113778
  11 H :    0.111799
  12 C :   -0.048435
  13 H :    0.126746
  14 H :    0.100643
  15 O :   -0.347198
  16 C :    0.015729
  17 C :    0.040117
  18 C :   -0.296993
  19 C :   -0.025881
  20 O :   -0.328050
  21 H :    0.116297
  22 H :    0.115747
  23 O :   -0.469985
  24 H :    0.103725
  25 H :    0.187909
  26 H :    0.093773
  27 H :    0.091327
  28 H :    0.256639

-------------------------------
LOEWDIN REDUCED ORBITAL CHARGES
-------------------------------
  0 C s       :     2.983858  s :     2.983858
      pz      :     0.901874  p :     2.834986
      px      :     0.854139
      py      :     1.078973
  1 C s       :     2.975255  s :     2.975255
      pz      :     1.082400  p :     3.236437
      px      :     1.108370
      py      :     1.045667
  2 C s       :     2.972755  s :     2.972755
      pz      :     1.023443  p :     3.240635
      px      :     1.139327
      py      :     1.077865
  3 C s       :     2.983644  s :     2.983644
      pz      :     1.039573  p :     3.040200
      px      :     1.125405
      py      :     0.875223
  4 O s       :     3.604398  s :     3.604398
      pz      :     1.382677  p :     4.688028
      px      :     1.753407
      py      :     1.551944
  5 H s       :     0.895621  s :     0.895621
  6 H s       :     0.877709  s :     0.877709
  7 H s       :     0.869457  s :     0.869457
  8 H s       :     0.879971  s :     0.879971
  9 H s       :     0.874736  s :     0.874736
 10 H s       :     0.886222  s :     0.886222
 11 H s       :     0.888201  s :     0.888201
 12 C s       :     3.010901  s :     3.010901
      pz      :     0.986951  p :     3.037534
      px      :     1.041486
      py      :     1.009097
 13 H s       :     0.873254  s :     0.873254
 14 H s       :     0.899357  s :     0.899357
 15 O s       :     3.661670  s :     3.661670
      pz      :     1.699469  p :     4.685528
      px      :     1.275418
      py      :     1.710641
 16 C s       :     2.967461  s :     2.967461
      pz      :     0.936574  p :     3.016810
      px      :     1.018644
      py      :     1.061592
 17 C s       :     2.971287  s :     2.971287
      pz      :     0.965216  p :     2.988595
      px      :     0.905371
      py      :     1.118008
 18 C s       :     2.989067  s :     2.989067
      pz      :     1.045069  p :     3.307926
      px      :     1.080470
      py      :     1.182387
 19 C s       :     2.982262  s :     2.982262
      pz      :     0.942222  p :     3.043618
      px      :     0.969244
      py      :     1.132152
 20 O s       :     3.600307  s :     3.600307
      pz      :     1.244866  p :     4.727743
      px      :     1.600104
      py      :     1.882773
 21 H s       :     0.883703  s :     0.883703
 22 H s       :     0.884253  s :     0.884253
 23 O s       :     3.682582  s :     3.682582
      pz      :     1.695898  p :     4.787403
      px      :     1.612907
      py      :     1.478598
 24 H s       :     0.896275  s :     0.896275
 25 H s       :     0.812091  s :     0.812091
 26 H s       :     0.906227  s :     0.906227
 27 H s       :     0.908673  s :     0.908673
 28 H s       :     0.743361  s :     0.743361


                      *****************************
                      * MAYER POPULATION ANALYSIS *
                      *****************************

  NA   - Mulliken gross atomic population
  ZA   - Total nuclear charge
  QA   - Mulliken gross atomic charge
  VA   - Mayer's total valence
  BVA  - Mayer's bonded valence
  FA   - Mayer's free valence

  ATOM       NA         ZA         QA         VA         BVA        FA
  0 C      5.7497     6.0000     0.2503     3.6551     3.6551     0.0000
  1 C      6.2696     6.0000    -0.2696     3.7310     3.7310     0.0000
  2 C      6.2999     6.0000    -0.2999     3.7544     3.7544     0.0000
  3 C      6.0087     6.0000    -0.0087     3.6217     3.6217     0.0000
  4 O      8.5108     8.0000    -0.5108     1.7697     1.7697     0.0000
  5 H      0.8842     1.0000     0.1158     0.9169     0.9169    -0.0000
  6 H      0.8386     1.0000     0.1614     0.9269     0.9269     0.0000
  7 H      0.8319     1.0000     0.1681     0.9380     0.9380     0.0000
  8 H      0.8470     1.0000     0.1530     0.9350     0.9350     0.0000
  9 H      0.8252     1.0000     0.1748     0.9296     0.9296     0.0000
 10 H      0.8377     1.0000     0.1623     0.9267     0.9267     0.0000
 11 H      0.8404     1.0000     0.1596     0.9270     0.9270     0.0000
 12 C      6.0626     6.0000    -0.0626     3.6196     3.6196    -0.0000
 13 H      0.8290     1.0000     0.1710     0.9334     0.9334     0.0000
 14 H      0.8645     1.0000     0.1355     0.9375     0.9375     0.0000
 15 O      8.4919     8.0000    -0.4919     1.8171     1.8171    -0.0000
 16 C      5.9140     6.0000     0.0860     3.5857     3.5857     0.0000
 17 C      5.9316     6.0000     0.0684     3.6593     3.6593     0.0000
 18 C      6.3456     6.0000    -0.3456     3.6301     3.6301     0.0000
 19 C      5.9984     6.0000     0.0016     3.6436     3.6436    -0.0000
 20 O      8.5224     8.0000    -0.5224     1.7666     1.7666     0.0000
 21 H      0.8511     1.0000     0.1489     0.9324     0.9324    -0.0000
 22 H      0.8463     1.0000     0.1537     0.9314     0.9314     0.0000
 23 O      8.6106     8.0000    -0.6106     1.7351     1.7351     0.0000
 24 H      0.8834     1.0000     0.1166     0.9466     0.9466     0.0000
 25 H      0.7056     1.0000     0.2944     0.8482     0.8482     0.0000
 26 H      0.8717     1.0000     0.1283     0.9311     0.9311    -0.0000
 27 H      0.8721     1.0000     0.1279     0.9277     0.9277     0.0000
 28 H      0.6554     1.0000     0.3446     0.8426     0.8426    -0.0000

  Mayer bond orders larger than 0.100000
B(  0-C ,  1-C ) :   0.9351 B(  0-C ,  4-O ) :   0.8956 B(  0-C ,  5-H ) :   0.7881 
B(  0-C , 15-O ) :   0.8842 B(  1-C ,  2-C ) :   0.9559 B(  1-C ,  6-H ) :   0.9297 
B(  1-C ,  7-H ) :   0.9339 B(  2-C ,  3-C ) :   0.9496 B(  2-C ,  8-H ) :   0.9432 
B(  2-C ,  9-H ) :   0.9406 B(  3-C ,  4-O ) :   0.7986 B(  3-C , 10-H ) :   0.9335 
B(  3-C , 11-H ) :   0.9393 B(  5-H , 28-H ) :   0.1288 B( 12-C , 13-H ) :   0.9322 
B( 12-C , 14-H ) :   0.9050 B( 12-C , 15-O ) :   0.8485 B( 12-C , 16-C ) :   0.8849 
B( 16-C , 17-C ) :   0.8953 B( 16-C , 20-O ) :   0.8876 B( 16-C , 21-H ) :   0.9224 
B( 17-C , 18-C ) :   0.9312 B( 17-C , 22-H ) :   0.9346 B( 17-C , 23-O ) :   0.8802 
B( 18-C , 19-C ) :   0.9288 B( 18-C , 24-H ) :   0.9506 B( 18-C , 25-H ) :   0.8260 
B( 19-C , 20-O ) :   0.8231 B( 19-C , 26-H ) :   0.9340 B( 19-C , 27-H ) :   0.9392 
B( 23-O , 28-H ) :   0.6679 

-------
TIMINGS
-------

Total SCF time: 0 days 0 hours 14 min 51 sec 

Total time                  ....     891.056 sec
Sum of individual times     ....     826.194 sec  ( 92.7%)

Fock matrix formation       ....     778.773 sec  ( 87.4%)
  XC integration            ....     564.110 sec  ( 72.4% of F)
    Basis function eval.    ....       3.316 sec  (  0.6% of XC)
    Density eval.           ....       2.914 sec  (  0.5% of XC)
    XC-Functional eval.     ....       1.953 sec  (  0.3% of XC)
    XC-Potential eval.      ....       1.539 sec  (  0.3% of XC)
Diagonalization             ....       9.549 sec  (  1.1%)
Density matrix formation    ....       0.012 sec  (  0.0%)
Population analysis         ....       4.294 sec  (  0.5%)
Initial guess               ....       2.776 sec  (  0.3%)
Orbital Transformation      ....       0.000 sec  (  0.0%)
Orbital Orthonormalization  ....       0.000 sec  (  0.0%)
DIIS solution               ....      15.645 sec  (  1.8%)
SOSCF solution              ....       5.379 sec  (  0.6%)
Grid generation             ....       9.766 sec  (  1.1%)

-------------------------   --------------------
FINAL SINGLE POINT ENERGY      -652.751493141038
-------------------------   --------------------

------------------------------------------------------------------------------
                         ORCA SCF GRADIENT CALCULATION
------------------------------------------------------------------------------

Gradient of the Kohn-Sham DFT energy:
Kohn-Sham wavefunction type      ... RKS
Hartree-Fock exchange scaling    ...    0.200
Number of operators              ...    1
Number of atoms                  ...   29
Basis set dimensions             ...  149
Integral neglect threshold       ... 2.5e-11
Integral primitive cutoff        ... 2.5e-12

Nuclear repulsion gradient       ... done
One Electron Gradient            ... done
Pre-screening matrix             ... done
Starting the two electron gradient:
Two electron gradient done
Exchange-correlation gradient    ... done

------------------
CARTESIAN GRADIENT
------------------

   1   C   :    0.015469598   -0.034144538   -0.001756930
   2   C   :    0.009358330   -0.002420030   -0.003708807
   3   C   :    0.000879324   -0.000652584   -0.001830478
   4   C   :   -0.006659398   -0.011455403   -0.004863641
   5   O   :   -0.032472451   -0.046293932    0.026884408
   6   H   :   -0.011926792   -0.042373585   -0.007240719
   7   H   :    0.000110498    0.002702904   -0.000113923
   8   H   :    0.000910944    0.003001727   -0.001457684
   9   H   :   -0.000555250    0.001041479    0.000157512
  10   H   :   -0.000653247    0.001670425    0.000957223
  11   H   :    0.000299137    0.002539744    0.002038250
  12   H   :    0.000427388    0.001657106    0.000925982
  13   C   :   -0.005968992    0.006385251   -0.010276638
  14   H   :   -0.007192003   -0.007974676   -0.007770227
  15   H   :   -0.002048112   -0.005346150   -0.000107280
  16   O   :   -0.020964419    0.012820975    0.028325849
  17   C   :   -0.005144881   -0.018085775   -0.004368012
  18   C   :   -0.024412673   -0.012063713    0.007618650
  19   C   :    0.025507155    0.016570445   -0.005127239
  20   C   :   -0.007703426    0.005904424   -0.002949937
  21   O   :    0.000945645    0.000485705    0.007304375
  22   H   :    0.000334193    0.000169862    0.002115705
  23   H   :   -0.008726007    0.001342274    0.010243169
  24   O   :    0.016100843   -0.027792435   -0.005098568
  25   H   :    0.000070473    0.002309594    0.000666781
  26   H   :    0.030822256    0.041202715   -0.023167186
  27   H   :    0.000533948   -0.001012723    0.001246867
  28   H   :    0.002420609    0.000592839   -0.000943665
  29   H   :    0.030237308    0.109218074   -0.007703840

Difference to translation invariance:
           :    0.0000000000   -0.0000000000   -0.0000000000

Norm of the cartesian gradient     ...    0.1705708531
RMS gradient                       ...    0.0182871150
MAX gradient                       ...    0.1092180738

-------
TIMINGS
-------

Total SCF gradient time            ...       41.063 sec

One electron gradient       ....       0.307 sec  (  0.7%)
Prescreening matrices       ....       0.050 sec  (  0.1%)
Two electron gradient       ....      18.854 sec  ( 45.9%)
XC gradient                 ....       9.926 sec  ( 24.2%)
------------------------------------------------------------------------------
                         ORCA GEOMETRY RELAXATION STEP
------------------------------------------------------------------------------

Reading the OPT-File                    .... done
Getting information on internals        .... done
Copying old internal coords+grads       .... done
Making the new internal coordinates     .... (new redundants).... done
Validating the new internal coordinates .... (new redundants).... done
Calculating the B-matrix                .... done
Calculating the G,G- and P matrices     .... done
Transforming gradient to internals      .... done
Projecting the internal gradient        .... done
Number of atoms                         ....  29
Number of internal coordinates          .... 172
Current Energy                          ....  -652.751493141 Eh
Current gradient norm                   ....     0.170570853 Eh/bohr
Maximum allowed component of the step   ....  0.300
Current trust radius                    ....  0.300
Evaluating the initial hessian          ....  (Almloef) done
Projecting the Hessian                  .... done
Forming the augmented Hessian           .... done
Diagonalizing the augmented Hessian     .... done
Last element of RFO vector              ....  0.770293388
Lowest eigenvalues of augmented Hessian:
 -0.566201274  0.007842303  0.032924536  0.033073799  0.037319292
Length of the computed step             ....  0.827852953
Warning: the length of the step is outside the trust region - taking restricted step instead
The input lambda is                     ....    -0.566201
   iter:   1  x=   -0.919410  g=    1.685523 f(x)=     0.595341
   iter:   2  x=   -1.350253  g=    0.567879 f(x)=     0.244667
   iter:   3  x=   -1.753768  g=    0.222433 f(x)=     0.089755
   iter:   4  x=   -1.974751  g=    0.113834 f(x)=     0.025155
   iter:   5  x=   -2.017928  g=    0.083366 f(x)=     0.003600
   iter:   6  x=   -2.019216  g=    0.078729 f(x)=     0.000101
   iter:   7  x=   -2.019217  g=    0.078596 f(x)=     0.000000
   iter:   8  x=   -2.019217  g=    0.078596 f(x)=     0.000000
   iter:   9  x=   -2.019217  g=    0.078596 f(x)=    -0.000000
The output lambda is                    ....    -2.019217 (9 iterations)
[...]
  29   2.0000      -0.484816       -13.1925 
  30   2.0000      -0.462824       -12.5941 
  31   2.0000      -0.448658       -12.2086 
  32   2.0000      -0.436466       -11.8768 
  33   2.0000      -0.424951       -11.5635 
  34   2.0000      -0.421706       -11.4752 
  35   2.0000      -0.408402       -11.1132 
  36   2.0000      -0.397763       -10.8237 
  37   2.0000      -0.390117       -10.6156 
  38   2.0000      -0.364996        -9.9320 
  39   2.0000      -0.355763        -9.6808 
  40   2.0000      -0.354440        -9.6448 
  41   2.0000      -0.349423        -9.5083 
  42   2.0000      -0.343510        -9.3474 
  43   2.0000      -0.326113        -8.8740 
  44   2.0000      -0.317010        -8.6263 
  45   2.0000      -0.293514        -7.9869 
  46   2.0000      -0.289154        -7.8683 
  47   2.0000      -0.273433        -7.4405 
  48   2.0000      -0.259566        -7.0632 
  49   2.0000      -0.251588        -6.8461 
  50   2.0000      -0.225478        -6.1356 
  51   0.0000       0.059143         1.6094 
  52   0.0000       0.083972         2.2850 
  53   0.0000       0.096652         2.6300 
  54   0.0000       0.107567         2.9271 
  55   0.0000       0.119450         3.2504 
  56   0.0000       0.121617         3.3094 
  57   0.0000       0.132647         3.6095 
  58   0.0000       0.143342         3.9005 
  59   0.0000       0.145074         3.9477 
  60   0.0000       0.151257         4.1159 
  61   0.0000       0.161263         4.3882 
  62   0.0000       0.165990         4.5168 
  63   0.0000       0.166267         4.5243 
  64   0.0000       0.171031         4.6540 
  65   0.0000       0.181290         4.9332 
  66   0.0000       0.186832         5.0840 
  67   0.0000       0.193416         5.2631 
  68   0.0000       0.203000         5.5239 
  69   0.0000       0.204348         5.5606 
  70   0.0000       0.216766         5.8985 
  71   0.0000       0.229953         6.2573 
  72   0.0000       0.234248         6.3742 
  73   0.0000       0.253807         6.9064 
  74   0.0000       0.262862         7.1528 
  75   0.0000       0.270297         7.3552 
  76   0.0000       0.277781         7.5588 
  77   0.0000       0.300704         8.1826 
  78   0.0000       0.302543         8.2326 
  79   0.0000       0.309917         8.4333 
  80   0.0000       0.327721         8.9177 
  81   0.0000       0.514588        14.0027 
  82   0.0000       0.547911        14.9094 
  83   0.0000       0.552375        15.0309 
  84   0.0000       0.558770        15.2049 
  85   0.0000       0.567594        15.4450 
  86   0.0000       0.573663        15.6102 
  87   0.0000       0.586805        15.9678 
  88   0.0000       0.591019        16.0824 
  89   0.0000       0.597374        16.2554 
  90   0.0000       0.609623        16.5887 
  91   0.0000       0.617089        16.7919 
  92   0.0000       0.624151        16.9840 
  93   0.0000       0.635263        17.2864 
  94   0.0000       0.648348        17.6425 
  95   0.0000       0.656529        17.8651 
  96   0.0000       0.662490        18.0273 
  97   0.0000       0.675172        18.3724 
  98   0.0000       0.680778        18.5249 
  99   0.0000       0.719252        19.5718 
 100   0.0000       0.748000        20.3541 
 101   0.0000       0.784285        21.3415 
 102   0.0000       0.808741        22.0070 
 103   0.0000       0.822276        22.3753 
 104   0.0000       0.824988        22.4491 
 105   0.0000       0.835148        22.7255 
 106   0.0000       0.849599        23.1188 
 107   0.0000       0.864684        23.5293 
 108   0.0000       0.871478        23.7141 
 109   0.0000       0.884263        24.0620 
 110   0.0000       0.892244        24.2792 
 111   0.0000       0.899602        24.4794 
 112   0.0000       0.911845        24.8126 
 113   0.0000       0.917909        24.9776 
 114   0.0000       0.932015        25.3614 
 115   0.0000       0.937859        25.5204 
 116   0.0000       0.944894        25.7119 
 117   0.0000       0.950089        25.8532 
 118   0.0000       0.963141        26.2084 
 119   0.0000       0.971961        26.4484 
 120   0.0000       0.989389        26.9227 
 121   0.0000       1.007616        27.4186 
 122   0.0000       1.013379        27.5755 
 123   0.0000       1.018653        27.7189 
 124   0.0000       1.046995        28.4902 
 125   0.0000       1.070995        29.1433 
 126   0.0000       1.110384        30.2151 
 127   0.0000       1.138287        30.9744 
 128   0.0000       1.143662        31.1206 
 129   0.0000       1.153306        31.3831 
 130   0.0000       1.220639        33.2153 
 131   0.0000       1.229077        33.4449 
 132   0.0000       1.298068        35.3222 
 133   0.0000       1.312708        35.7206 
 134   0.0000       1.356129        36.9021 
 135   0.0000       1.390976        37.8504 
 136   0.0000       1.414447        38.4890 
 137   0.0000       1.467764        39.9399 
 138   0.0000       1.483904        40.3791 
 139   0.0000       1.516638        41.2698 
 140   0.0000       1.551560        42.2201 
 141   0.0000       1.620744        44.1027 
 142   0.0000       1.679907        45.7126 
 143   0.0000       1.707175        46.4546 
 144   0.0000       1.812403        49.3180 
 145   0.0000       1.907544        51.9069 
 146   0.0000       1.987305        54.0773 
 147   0.0000       2.065564        56.2068 
 148   0.0000       2.152073        58.5609 

                    ********************************
                    * MULLIKEN POPULATION ANALYSIS *
                    ********************************

-----------------------
MULLIKEN ATOMIC CHARGES
-----------------------
   0 C :    0.275060
   1 C :   -0.248715
   2 C :   -0.301939
   3 C :    0.002761
   4 O :   -0.517888
   5 H :    0.173006
   6 H :    0.138693
   7 H :    0.150070
   8 H :    0.139214
   9 H :    0.166296
  10 H :    0.147860
  11 H :    0.139255
  12 C :   -0.008709
  13 H :    0.159154
  14 H :    0.139212
  15 O :   -0.522836
  16 C :    0.099520
  17 C :    0.088275
  18 C :   -0.362063
  19 C :   -0.005025
  20 O :   -0.521850
  21 H :    0.142322
  22 H :    0.135304
  23 O :   -0.616810
  24 H :    0.123096
  25 H :    0.235148
  26 H :    0.149833
  27 H :    0.135593
  28 H :    0.366163
Sum of atomic charges:    0.0000000

--------------------------------
MULLIKEN REDUCED ORBITAL CHARGES
--------------------------------
  0 C s       :     3.208655  s :     3.208655
      pz      :     0.800528  p :     2.516285
      px      :     0.681005
      py      :     1.034752
  1 C s       :     3.299916  s :     3.299916
      pz      :     0.979670  p :     2.948799
      px      :     1.036495
      py      :     0.932633
  2 C s       :     3.315852  s :     3.315852
      pz      :     0.908442  p :     2.986086
      px      :     1.086426
      py      :     0.991219
  3 C s       :     3.259169  s :     3.259169
      pz      :     0.947218  p :     2.738070
      px      :     1.060720
      py      :     0.730132
  4 O s       :     3.938255  s :     3.938255
      pz      :     1.327179  p :     4.579633
      px      :     1.756244
      py      :     1.496210
  5 H s       :     0.826994  s :     0.826994
  6 H s       :     0.861307  s :     0.861307
  7 H s       :     0.849930  s :     0.849930
  8 H s       :     0.860786  s :     0.860786
  9 H s       :     0.833704  s :     0.833704
 10 H s       :     0.852140  s :     0.852140
 11 H s       :     0.860745  s :     0.860745
 12 C s       :     3.261964  s :     3.261964
      pz      :     0.919415  p :     2.746745
      px      :     0.934696
      py      :     0.892634
 13 H s       :     0.840846  s :     0.840846
 14 H s       :     0.860788  s :     0.860788
 15 O s       :     3.916124  s :     3.916124
      pz      :     1.708283  p :     4.606712
      px      :     1.233889
      py      :     1.664540
 16 C s       :     3.242255  s :     3.242255
      pz      :     0.791365  p :     2.658226
      px      :     0.918583
      py      :     0.948277
 17 C s       :     3.239428  s :     3.239428
      pz      :     0.839451  p :     2.672297
      px      :     0.791418
      py      :     1.041429
 18 C s       :     3.335331  s :     3.335331
      pz      :     0.917932  p :     3.026732
      px      :     1.023754
      py      :     1.085046
 19 C s       :     3.262587  s :     3.262587
      pz      :     0.821709  p :     2.742438
      px      :     0.859600
      py      :     1.061129
 20 O s       :     3.943541  s :     3.943541
      pz      :     1.151441  p :     4.578309
      px      :     1.574639
      py      :     1.852229
 21 H s       :     0.857678  s :     0.857678
 22 H s       :     0.864696  s :     0.864696
 23 O s       :     3.920793  s :     3.920793
      pz      :     1.658618  p :     4.696017
      px      :     1.324143
      py      :     1.713257
 24 H s       :     0.876904  s :     0.876904
 25 H s       :     0.764852  s :     0.764852
 26 H s       :     0.850167  s :     0.850167
 27 H s       :     0.864407  s :     0.864407
 28 H s       :     0.633837  s :     0.633837


                     *******************************
                     * LOEWDIN POPULATION ANALYSIS *
                     *******************************

----------------------
LOEWDIN ATOMIC CHARGES
----------------------
   0 C :    0.168138
   1 C :   -0.218168
   2 C :   -0.216525
   3 C :   -0.027087
   4 O :   -0.319307
   5 H :    0.112482
   6 H :    0.110155
   7 H :    0.120238
   8 H :    0.112752
   9 H :    0.121353
  10 H :    0.105758
  11 H :    0.100754
  12 C :   -0.036246
  13 H :    0.118483
  14 H :    0.104436
  15 O :   -0.333467
  16 C :    0.023343
  17 C :    0.033967
  18 C :   -0.264563
  19 C :   -0.023156
  20 O :   -0.323303
  21 H :    0.111650
  22 H :    0.095742
  23 O :   -0.421229
  24 H :    0.105189
  25 H :    0.148822
  26 H :    0.106020
  27 H :    0.096837
  28 H :    0.286935

-------------------------------
LOEWDIN REDUCED ORBITAL CHARGES
-------------------------------
  0 C s       :     2.957087  s :     2.957087
      pz      :     0.920396  p :     2.874775
      px      :     0.846805
      py      :     1.107574
  1 C s       :     2.978724  s :     2.978724
      pz      :     1.074911  p :     3.239444
      px      :     1.111203
      py      :     1.053330
  2 C s       :     2.971645  s :     2.971645
      pz      :     1.032088  p :     3.244880
      px      :     1.133728
      py      :     1.079063
  3 C s       :     2.984365  s :     2.984365
      pz      :     1.045819  p :     3.042722
      px      :     1.124451
      py      :     0.872451
  4 O s       :     3.595605  s :     3.595605
      pz      :     1.392545  p :     4.723703
      px      :     1.785986
      py      :     1.545171
  5 H s       :     0.887518  s :     0.887518
  6 H s       :     0.889845  s :     0.889845
  7 H s       :     0.879762  s :     0.879762
  8 H s       :     0.887248  s :     0.887248
  9 H s       :     0.878647  s :     0.878647
 10 H s       :     0.894242  s :     0.894242
 11 H s       :     0.899246  s :     0.899246
 12 C s       :     2.978947  s :     2.978947
      pz      :     1.017786  p :     3.057300
      px      :     1.019920
      py      :     1.019594
 13 H s       :     0.881517  s :     0.881517
 14 H s       :     0.895564  s :     0.895564
 15 O s       :     3.583732  s :     3.583732
      pz      :     1.749359  p :     4.749735
      px      :     1.308746
      py      :     1.691630
 16 C s       :     2.959461  s :     2.959461
      pz      :     0.929963  p :     3.017197
      px      :     1.018795
      py      :     1.068439
 17 C s       :     2.954213  s :     2.954213
      pz      :     0.975119  p :     3.011819
      px      :     0.928377
      py      :     1.108323
 18 C s       :     2.985700  s :     2.985700
      pz      :     1.038867  p :     3.278863
      px      :     1.105348
      py      :     1.134648
 19 C s       :     2.981179  s :     2.981179
      pz      :     0.939784  p :     3.041978
      px      :     0.982258
      py      :     1.119936
 20 O s       :     3.595328  s :     3.595328
      pz      :     1.231939  p :     4.727975
      px      :     1.619128
      py      :     1.876909
 21 H s       :     0.888350  s :     0.888350
 22 H s       :     0.904258  s :     0.904258
 23 O s       :     3.611606  s :     3.611606
      pz      :     1.687634  p :     4.809623
      px      :     1.375834
      py      :     1.746155
 24 H s       :     0.894811  s :     0.894811
 25 H s       :     0.851178  s :     0.851178
 26 H s       :     0.893980  s :     0.893980
 27 H s       :     0.903163  s :     0.903163
 28 H s       :     0.713065  s :     0.713065


                      *****************************
                      * MAYER POPULATION ANALYSIS *
                      *****************************

  NA   - Mulliken gross atomic population
  ZA   - Total nuclear charge
  QA   - Mulliken gross atomic charge
  VA   - Mayer's total valence
  BVA  - Mayer's bonded valence
  FA   - Mayer's free valence

  ATOM       NA         ZA         QA         VA         BVA        FA
  0 C      5.7249     6.0000     0.2751     3.6166     3.6166     0.0000
  1 C      6.2487     6.0000    -0.2487     3.7326     3.7326    -0.0000
  2 C      6.3019     6.0000    -0.3019     3.7661     3.7661    -0.0000
  3 C      5.9972     6.0000     0.0028     3.6557     3.6557    -0.0000
  4 O      8.5179     8.0000    -0.5179     1.7973     1.7973    -0.0000
  5 H      0.8270     1.0000     0.1730     0.9487     0.9487    -0.0000
  6 H      0.8613     1.0000     0.1387     0.9331     0.9331    -0.0000
  7 H      0.8499     1.0000     0.1501     0.9418     0.9418     0.0000
  8 H      0.8608     1.0000     0.1392     0.9373     0.9373    -0.0000
  9 H      0.8337     1.0000     0.1663     0.9333     0.9333    -0.0000
 10 H      0.8521     1.0000     0.1479     0.9269     0.9269     0.0000
 11 H      0.8607     1.0000     0.1393     0.9295     0.9295     0.0000
 12 C      6.0087     6.0000    -0.0087     3.6614     3.6614     0.0000
 13 H      0.8408     1.0000     0.1592     0.9310     0.9310     0.0000
 14 H      0.8608     1.0000     0.1392     0.9341     0.9341    -0.0000
 15 O      8.5228     8.0000    -0.5228     1.7585     1.7585    -0.0000
 16 C      5.9005     6.0000     0.0995     3.6000     3.6000     0.0000
 17 C      5.9117     6.0000     0.0883     3.6489     3.6489     0.0000
 18 C      6.3621     6.0000    -0.3621     3.6715     3.6715    -0.0000
 19 C      6.0050     6.0000    -0.0050     3.6680     3.6680    -0.0000
 20 O      8.5219     8.0000    -0.5219     1.7722     1.7722    -0.0000
 21 H      0.8577     1.0000     0.1423     0.9303     0.9303     0.0000
 22 H      0.8647     1.0000     0.1353     0.9224     0.9224    -0.0000
 23 O      8.6168     8.0000    -0.6168     1.7436     1.7436    -0.0000
 24 H      0.8769     1.0000     0.1231     0.9406     0.9406     0.0000
 25 H      0.7649     1.0000     0.2351     0.9369     0.9369     0.0000
 26 H      0.8502     1.0000     0.1498     0.9271     0.9271     0.0000
 27 H      0.8644     1.0000     0.1356     0.9276     0.9276     0.0000
 28 H      0.6338     1.0000     0.3662     0.8280     0.8280    -0.0000

  Mayer bond orders larger than 0.100000
B(  0-C ,  1-C ) :   0.9426 B(  0-C ,  4-O ) :   0.8773 B(  0-C ,  5-H ) :   0.9020 
B(  0-C , 15-O ) :   0.8459 B(  1-C ,  2-C ) :   0.9554 B(  1-C ,  6-H ) :   0.9383 
B(  1-C ,  7-H ) :   0.9399 B(  2-C ,  3-C ) :   0.9553 B(  2-C ,  8-H ) :   0.9456 
B(  2-C ,  9-H ) :   0.9428 B(  3-C ,  4-O ) :   0.8299 B(  3-C , 10-H ) :   0.9357 
B(  3-C , 11-H ) :   0.9407 B( 12-C , 13-H ) :   0.9346 B( 12-C , 14-H ) :   0.9105 
B( 12-C , 15-O ) :   0.8756 B( 12-C , 16-C ) :   0.8969 B( 16-C , 17-C ) :   0.9234 
B( 16-C , 20-O ) :   0.8823 B( 16-C , 21-H ) :   0.9199 B( 17-C , 18-C ) :   0.9297 
B( 17-C , 22-H ) :   0.9243 B( 17-C , 23-O ) :   0.8660 B( 18-C , 19-C ) :   0.9468 
B( 18-C , 24-H ) :   0.9437 B( 18-C , 25-H ) :   0.8747 B( 19-C , 20-O ) :   0.8404 
B( 19-C , 26-H ) :   0.9322 B( 19-C , 27-H ) :   0.9381 B( 23-O , 28-H ) :   0.8001 


-------
TIMINGS
-------

Total SCF time: 0 days 0 hours 2 min 41 sec 

Total time                  ....     161.362 sec
Sum of individual times     ....     118.822 sec  ( 73.6%)

Fock matrix formation       ....     102.972 sec  ( 63.8%)
  XC integration            ....      42.102 sec  ( 40.9% of F)
    Basis function eval.    ....       1.670 sec  (  4.0% of XC)
    Density eval.           ....       0.784 sec  (  1.9% of XC)
    XC-Functional eval.     ....       0.990 sec  (  2.4% of XC)
    XC-Potential eval.      ....       0.677 sec  (  1.6% of XC)
Diagonalization             ....       1.438 sec  (  0.9%)
Density matrix formation    ....       0.006 sec  (  0.0%)
Population analysis         ....       3.761 sec  (  2.3%)
Initial guess               ....       2.640 sec  (  1.6%)
Orbital Transformation      ....       0.000 sec  (  0.0%)
Orbital Orthonormalization  ....       0.004 sec  (  0.0%)
DIIS solution               ....       0.003 sec  (  0.0%)
SOSCF solution              ....       0.329 sec  (  0.2%)
Grid generation             ....       7.674 sec  (  4.8%)

-------------------------   --------------------
FINAL SINGLE POINT ENERGY      -652.861272817135
-------------------------   --------------------

                                *** OPTIMIZATION RUN DONE ***

                            ***************************************
                            *     ORCA property calculations      *
                            ***************************************

                                    ---------------------
                                    Active property flags
                                    ---------------------
   (+) Dipole Moment


------------------------------------------------------------------------------
                       ORCA ELECTRIC PROPERTIES CALCULATION
------------------------------------------------------------------------------

Dipole Moment Calculation                       ... on
Quadrupole Moment Calculation                   ... off
Polarizability Calculation                      ... off
GBWName                                         ... project_8049/ensemble_240_90.gbw
Electron density file                           ... project_8049/ensemble_240_90.scfp
The origin for moment calculation is the CENTER OF MASS  = (-41.603481, 48.172147 88.504399)

-------------
DIPOLE MOMENT
-------------
                                X             Y             Z
Electronic contribution:     -2.66298      -3.01808      -1.40510
Nuclear contribution   :      3.69111       2.84657       1.37519
                        -----------------------------------------
Total Dipole Moment    :      1.02813      -0.17151      -0.02991
                        -----------------------------------------
Magnitude (a.u.)       :      1.04277
Magnitude (Debye)      :      2.65051



--------------------
Rotational spectrum 
--------------------
 
Rotational constants in cm-1:     0.044953     0.017481     0.017011 
Rotational constants in MHz :  1347.652167   524.074455   509.984831 

 Dipole components along the rotational axes: 
x,y,z [a.u.] :     0.498993    -0.082757    -0.911880 
x,y,z [Debye]:     1.268340    -0.210352    -2.317816 

 

Timings for individual modules:

Sum of individual times         ...     6784.862 sec (= 113.081 min)
GTO integral calculation        ...      178.076 sec (=   2.968 min)   2.6 %
SCF iterations                  ...     5839.665 sec (=  97.328 min)  86.1 %
SCF Gradient evaluation         ...      625.029 sec (=  10.417 min)   9.2 %
Geometry relaxation             ...      142.092 sec (=   2.368 min)   2.1 %
                             ****ORCA TERMINATED NORMALLY****
TOTAL RUN TIME: 0 days 2 hours 1 minutes 9 seconds 315 msec
