
                                 *****************
                                 * O   R   C   A *
                                 *****************

           --- An Ab Initio, DFT and Semiempirical electronic structure package ---

                  #######################################################
                  #                        -***-                        #
                  #          Department of theory and spectroscopy      #
                  #               Directorship: Frank Neese             #
                  #        Max Planck Institute fuer Kohlenforschung    #
                  #                Kaiser Wilhelm Platz 1               #
                  #                 D-45470 Muelheim/Ruhr               #
                  #                      Germany                        #
                  #                                                     #
                  #                  All rights reserved                #
                  #                        -***-                        #
                  #######################################################


                         Program Version 4.2.0 -  RELEASE  -


 With contributions from (in alphabetic order):
   Daniel Aravena         : Magnetic Suceptibility
   Michael Atanasov       : Ab Initio Ligand Field Theory (pilot matlab implementation)
   Alexander A. Auer      : GIAO ZORA, VPT2
   Ute Becker             : Parallelization
   Giovanni Bistoni       : ED, misc. LED, open-shell LED, HFLED
   Martin Brehm           : Molecular dynamics
   Dmytro Bykov           : SCF Hessian
   Vijay G. Chilkuri      : MRCI spin determinant printing, contributions to CSF-ICE
   Dipayan Datta          : RHF DLPNO-CCSD density
   Achintya Kumar Dutta   : EOM-CC, STEOM-CC
   Dmitry Ganyushin       : Spin-Orbit,Spin-Spin,Magnetic field MRCI
   Miquel Garcia          : C-PCM Hessian, Gaussian charge scheme
   Yang Guo               : DLPNO-NEVPT2, CIM, IAO-localization
   Andreas Hansen         : Spin unrestricted coupled pair/coupled cluster methods
   Benjamin Helmich-Paris : CASSCF linear response (MC-RPA)
   Lee Huntington         : MR-EOM, pCC
   Robert Izsak           : Overlap fitted RIJCOSX, COSX-SCS-MP3, EOM
   Christian Kollmar      : KDIIS, OOCD, Brueckner-CCSD(T), CCSD density
   Simone Kossmann        : Meta GGA functionals, TD-DFT gradient, OOMP2, MP2 Hessian
   Martin Krupicka        : AUTO-CI
   Lucas Lang             : DCDCAS
   Dagmar Lenk            : GEPOL surface, SMD
   Dimitrios Liakos       : Extrapolation schemes; Compound Job, initial MDCI parallelization
   Dimitrios Manganas     : Further ROCIS development; embedding schemes
   Dimitrios Pantazis     : SARC Basis sets
   Taras Petrenko         : DFT Hessian,TD-DFT gradient, ASA, ECA, R-Raman, ABS, FL, XAS/XES, NRVS
   Peter Pinski           : DLPNO-MP2, DLPNO-MP2 Gradient
   Christoph Reimann      : Effective Core Potentials
   Marius Retegan         : Local ZFS, SOC
   Christoph Riplinger    : Optimizer, TS searches, QM/MM, DLPNO-CCSD(T), (RO)-DLPNO pert. Triples
   Tobias Risthaus        : Range-separated hybrids, TD-DFT gradient, RPA, STAB
   Michael Roemelt        : Original ROCIS implementation
   Masaaki Saitow         : Open-shell DLPNO-CCSD energy and density
   Barbara Sandhoefer     : DKH picture change effects
   Avijit Sen             : IP-ROCIS
   Kantharuban Sivalingam : CASSCF convergence, NEVPT2, FIC-MRCI
   Bernardo de Souza      : ESD, SOC TD-DFT
   Georgi Stoychev        : AutoAux, RI-MP2 NMR
   Willem Van den Heuvel  : Paramagnetic NMR
   Boris Wezisla          : Elementary symmetry handling
   Frank Wennmohs         : Technical directorship


 We gratefully acknowledge several colleagues who have allowed us to
 interface, adapt or use parts of their codes:
   Stefan Grimme, W. Hujo, H. Kruse,             : VdW corrections, initial TS optimization,
                  C. Bannwarth                     DFT functionals, gCP, sTDA/sTD-DF
   Ed Valeev, F. Pavosevic, A. Kumar             : LibInt (2-el integral package), F12 methods
   Garnet Chan, S. Sharma, J. Yang, R. Olivares  : DMRG
   Ulf Ekstrom                                   : XCFun DFT Library
   Mihaly Kallay                                 : mrcc  (arbitrary order and MRCC methods)
   Andreas Klamt, Michael Diedenhofen            : otool_cosmo (COSMO solvation model)
   Jiri Pittner, Ondrej Demel                    : Mk-CCSD
   Frank Weinhold                                : gennbo (NPA and NBO analysis)
   Christopher J. Cramer and Donald G. Truhlar   : smd solvation model
   Lars Goerigk                                  : TD-DFT with DH, B97 family of functionals
   V. Asgeirsson, H. Jonsson                     : NEB implementation
   FAccTs GmbH                                   : IRC, NEB, NEB-TS, Multilevel, MM, QM/MM, CI optimization
   S Lehtola, MJT Oliveira, MAL Marques          : LibXC Library


 Your calculation uses the libint2 library for the computation of 2-el integrals
 For citations please refer to: http://libint.valeyev.net

 Your ORCA version has been built with support for libXC version: 4.2.3
 For citations please refer to: https://tddft.org/programs/libxc/

 This ORCA versions uses:
   CBLAS   interface :  Fast vector & matrix operations
   LAPACKE interface :  Fast linear algebra routines
   SCALAPACK package :  Parallel linear algebra routines


----- Orbital basis set information -----
Your calculation utilizes the basis: 6-31G
   H-He, Li-Ne : W. J. Hehre, R. Ditchfield and J.A. Pople, J. Chem. Phys. 56, 2257 (1972).
                 Note: He and Ne are unpublished basis sets taken from the Gaussian program.
                 Note: Li and B from J. D. Dill and J. A. Pople, J. Chem. Phys. 62, 2921 (1975).
   Na - Ar     : M. M. Francl, W. J. Pietro, W. J. Hehre, J. S. Binkley, M. S. Gordon, 
                 D. J. DeFrees and J. A. Pople, J. Chem. Phys. 77, 3654 (1982).
   K - Zn      : V. A. Rassolov, J. A. Pople, M. A. Ratner, and T. L. Windus, J. Chem. Phys. 109, 1223 (1998).

================================================================================
                                        WARNINGS
                       Please study these warnings very carefully!
================================================================================


WARNING: Geometry Optimization
  ===> : Switching off AutoStart
         For restart on a previous wavefunction, please use MOREAD

INFO   : the flag for use of LIBINT has been found!

================================================================================
                                       INPUT FILE
================================================================================
NAME = project_8053/ensemble_90_120.inp
|  1> # Test redundant internal optimization
|  2> #
|  3> ! RKS B3LYP  Opt TightSCF SmallPrint
|  4> 
|  5> %basis
|  6>         Basis "6-31G"
|  7> end
|  8> 
|  9> %geom
| 10> Constraints
| 11> { D 4  0  15  12  90.0   C } # D for Dihedral angle
| 12> { D 0  15  12  16  120.0   C } # D for Dihedral angle
| 13> { D 0  4  3  2   C } # D for Dihedral angle
| 14> { D 4  3  2  1   C } # D for Dihedral angle
| 15> { D 3  2  1  0   C } # D for Dihedral angle
| 16> { D 2  1  0  4   C } # D for Dihedral angle
| 17> { D 1  0  4  3   C } # D for Dihedral angle
| 18> { D 16  20  19  18   C } # D for Dihedral angle
| 19> { D 20  19  18  17   C } # D for Dihedral angle
| 20> { D 19  18  17  16   C } # D for Dihedral angle
| 21> { D 18  17  16  20   C } # D for Dihedral angle
| 22> { D 17  16  20  19   C } # D for Dihedral angle
| 23> { D 15  12  16  20   C } # D for Dihedral angle
| 24> end
| 25> end
| 26> 
| 27> 
| 28> #%pal 
| 29> #nprocs 8
| 30> #end
| 31> 
| 32> * xyz 0 1
| 33> C  -21.048   26.222   46.251
| 34> C  -20.361   27.558   45.944
| 35> C  -20.329   28.222   47.341
| 36> C  -20.110   27.022   48.296
| 37> O  -20.473   25.807   47.535
| 38> H  -20.833   25.428   45.533
| 39> H  -19.344   27.382   45.576
| 40> H  -20.898   28.157   45.201
| 41> H  -19.543   28.978   47.434
| 42> H  -21.289   28.710   47.548
| 43> H  -20.733   27.082   49.195
| 44> H  -19.064   26.913   48.597
| 45> C  -23.061   27.816   46.783
| 46> H  -23.613   27.755   47.730
| 47> H  -22.200   28.481   46.930
| 48> O  -22.586   26.394   46.375
| 49> C  -23.986   28.468   45.719
| 50> C  -24.341   29.910   46.099
| 51> C  -23.061   30.670   45.676
| 52> C  -22.602   29.907   44.409
| 53> O  -23.284   28.595   44.438
| 54> H  -24.848   27.820   45.549
| 55> H  -25.203   30.252   45.517
| 56> O  -24.671   30.080   47.607
| 57> H  -23.242   31.732   45.482
| 58> H  -22.303   30.599   46.466
| 59> H  -21.518   29.747   44.385
| 60> H  -22.906   30.409   43.486
| 61> H  -23.821   29.745   48.212
| 62> *
| 63> 
| 64>                          ****END OF INPUT****
================================================================================

                       *****************************
                       * Geometry Optimization Run *
                       *****************************

Geometry optimization settings:
Update method            Update   .... BFGS
Choice of coordinates    CoordSys .... Z-matrix Internals
Initial Hessian          InHess   .... Almoef's Model

Convergence Tolerances:
Energy Change            TolE     ....  5.0000e-06 Eh
Max. Gradient            TolMAXG  ....  3.0000e-04 Eh/bohr
RMS Gradient             TolRMSG  ....  1.0000e-04 Eh/bohr
Max. Displacement        TolMAXD  ....  4.0000e-03 bohr
RMS Displacement         TolRMSD  ....  2.0000e-03 bohr
Strict Convergence                ....  False
------------------------------------------------------------------------------
                        ORCA OPTIMIZATION COORDINATE SETUP
------------------------------------------------------------------------------

The optimization will be done in new redundant internal coordinates
Making redundant internal coordinates   ...  (new redundants) done
Evaluating the initial hessian          ...  (Almloef) done
Evaluating the coordinates              ...  done
Calculating the B-matrix                .... done
Calculating the G-matrix                .... done
Diagonalizing the G-matrix              .... done
Imposing constraints:
 Iter   0:  RMS(Cart)=    0.0001070640 RMS(Int)=    0.0000332806
 Iter   1:  RMS(Cart)=    0.0000561198 RMS(Int)=    0.0000181278
 Iter   2:  RMS(Cart)=    0.0000298895 RMS(Int)=    0.0000106004
 Iter   3:  RMS(Cart)=    0.0000162717 RMS(Int)=    0.0000071074
 Iter   4:  RMS(Cart)=    0.0000091420 RMS(Int)=    0.0000056362
 Iter   5:  RMS(Cart)=    0.0000053782 RMS(Int)=    0.0000050307
 Iter   6:  RMS(Cart)=    0.0000033765 RMS(Int)=    0.0000047393
 Iter   7:  RMS(Cart)=    0.0000023049 RMS(Int)=    0.0000045538
 Iter   8:  RMS(Cart)=    0.0000017259 RMS(Int)=    0.0000044052
 Iter   9:  RMS(Cart)=    0.0000014063 RMS(Int)=    0.0000042714
 Iter  10:  RMS(Cart)=    0.0000012223 RMS(Int)=    0.0000041452
 Iter  11:  RMS(Cart)=    0.0000011092 RMS(Int)=    0.0000040243
 Iter  12:  RMS(Cart)=    0.0000010338 RMS(Int)=    0.0000039076
 Iter  13:  RMS(Cart)=    0.0000009788 RMS(Int)=    0.0000037949
 Iter  14:  RMS(Cart)=    0.0000009354 RMS(Int)=    0.0000036857
 Iter  15:  RMS(Cart)=    0.0000008988 RMS(Int)=    0.0000035801
 Iter  16:  RMS(Cart)=    0.0000008665 RMS(Int)=    0.0000034778
 Iter  17:  RMS(Cart)=    0.0000008370 RMS(Int)=    0.0000033788
 Iter  18:  RMS(Cart)=    0.0000008095 RMS(Int)=    0.0000032829
 Iter  19:  RMS(Cart)=    0.0000007835 RMS(Int)=    0.0000031900
 Iter  20:  RMS(Cart)=    0.0000007588 RMS(Int)=    0.0000031000
 Iter  21:  RMS(Cart)=    0.0000007350 RMS(Int)=    0.0000030128
 Iter  22:  RMS(Cart)=    0.0000007122 RMS(Int)=    0.0000029283
 Iter  23:  RMS(Cart)=    0.0000006902 RMS(Int)=    0.0000028464
 Iter  24:  RMS(Cart)=    0.0000006690 RMS(Int)=    0.0000027671
 Iter  25:  RMS(Cart)=    0.0000006485 RMS(Int)=    0.0000026902
 Iter  26:  RMS(Cart)=    0.0000006287 RMS(Int)=    0.0000026158
 Iter  27:  RMS(Cart)=    0.0000006096 RMS(Int)=    0.0000025436
 Iter  28:  RMS(Cart)=    0.0000005912 RMS(Int)=    0.0000024736
 Iter  29:  RMS(Cart)=    0.0000005732 RMS(Int)=    0.0000024058
 Iter  30:  RMS(Cart)=    0.0000005559 RMS(Int)=    0.0000023400
 Iter  31:  RMS(Cart)=    0.0000005391 RMS(Int)=    0.0000022763
 Iter  32:  RMS(Cart)=    0.0000005230 RMS(Int)=    0.0000022145
 Iter  33:  RMS(Cart)=    0.0000005073 RMS(Int)=    0.0000021546
 Iter  34:  RMS(Cart)=    0.0000004920 RMS(Int)=    0.0000020965
 Iter  35:  RMS(Cart)=    0.0000004773 RMS(Int)=    0.0000020402
 Iter  36:  RMS(Cart)=    0.0000004631 RMS(Int)=    0.0000019855
 Iter  37:  RMS(Cart)=    0.0000004492 RMS(Int)=    0.0000019325
 Iter  38:  RMS(Cart)=    0.0000004358 RMS(Int)=    0.0000018812
 Iter  39:  RMS(Cart)=    0.0000004229 RMS(Int)=    0.0000018313
 Iter  40:  RMS(Cart)=    0.0000004104 RMS(Int)=    0.0000017830
 Iter  41:  RMS(Cart)=    0.0000003983 RMS(Int)=    0.0000017360
 Iter  42:  RMS(Cart)=    0.0000003865 RMS(Int)=    0.0000016905
 Iter  43:  RMS(Cart)=    0.0000003752 RMS(Int)=    0.0000016464
 Iter  44:  RMS(Cart)=    0.0000003642 RMS(Int)=    0.0000016036
 Iter  45:  RMS(Cart)=    0.0000003534 RMS(Int)=    0.0000015620
 Iter  46:  RMS(Cart)=    0.0000003432 RMS(Int)=    0.0000015216
 Iter  47:  RMS(Cart)=    0.0000003330 RMS(Int)=    0.0000014825
 Iter  48:  RMS(Cart)=    0.0000003235 RMS(Int)=    0.0000014445
 Iter  49:  RMS(Cart)=    0.0000003139 RMS(Int)=    0.0000014076
 Iter  50:  RMS(Cart)=    0.0000003048 RMS(Int)=    0.0000013718
 Iter  51:  RMS(Cart)=    0.0000002960 RMS(Int)=    0.0000013371
 Iter  52:  RMS(Cart)=    0.0000002876 RMS(Int)=    0.0000013034
 Iter  53:  RMS(Cart)=    0.0000002792 RMS(Int)=    0.0000012706
 Iter  54:  RMS(Cart)=    0.0000002710 RMS(Int)=    0.0000012388
 Iter  55:  RMS(Cart)=    0.0000002633 RMS(Int)=    0.0000012080
 Iter  56:  RMS(Cart)=    0.0000002559 RMS(Int)=    0.0000011780
 Iter  57:  RMS(Cart)=    0.0000002486 RMS(Int)=    0.0000011489
 Iter  58:  RMS(Cart)=    0.0000002413 RMS(Int)=    0.0000011206
 Iter  59:  RMS(Cart)=    0.0000002345 RMS(Int)=    0.0000010932
 Iter  60:  RMS(Cart)=    0.0000002279 RMS(Int)=    0.0000010665
 Iter  61:  RMS(Cart)=    0.0000002214 RMS(Int)=    0.0000010407
 Iter  62:  RMS(Cart)=    0.0000002152 RMS(Int)=    0.0000010155
 Iter  63:  RMS(Cart)=    0.0000002091 RMS(Int)=    0.0000009911
 Iter  64:  RMS(Cart)=    0.0000002032 RMS(Int)=    0.0000009673
 Iter  65:  RMS(Cart)=    0.0000001974 RMS(Int)=    0.0000009443
 Iter  66:  RMS(Cart)=    0.0000001919 RMS(Int)=    0.0000009219
 Iter  67:  RMS(Cart)=    0.0000001866 RMS(Int)=    0.0000009001
 Iter  68:  RMS(Cart)=    0.0000001814 RMS(Int)=    0.0000008790
 Iter  69:  RMS(Cart)=    0.0000001762 RMS(Int)=    0.0000008584
 Iter  70:  RMS(Cart)=    0.0000001713 RMS(Int)=    0.0000008384
 Iter  71:  RMS(Cart)=    0.0000001663 RMS(Int)=    0.0000008190
 Iter  72:  RMS(Cart)=    0.0000001621 RMS(Int)=    0.0000008001
 Iter  73:  RMS(Cart)=    0.0000001575 RMS(Int)=    0.0000007818
 Iter  74:  RMS(Cart)=    0.0000001530 RMS(Int)=    0.0000007639
 Iter  75:  RMS(Cart)=    0.0000001490 RMS(Int)=    0.0000007466
 Iter  76:  RMS(Cart)=    0.0000001449 RMS(Int)=    0.0000007298
 Iter  77:  RMS(Cart)=    0.0000001410 RMS(Int)=    0.0000007133
 Iter  78:  RMS(Cart)=    0.0000001369 RMS(Int)=    0.0000006974
 Iter  79:  RMS(Cart)=    0.0000001332 RMS(Int)=    0.0000006819
 Iter  80:  RMS(Cart)=    0.0000001300 RMS(Int)=    0.0000006669
 Iter  81:  RMS(Cart)=    0.0000001262 RMS(Int)=    0.0000006522
 Iter  82:  RMS(Cart)=    0.0000001228 RMS(Int)=    0.0000006379
 Iter  83:  RMS(Cart)=    0.0000001195 RMS(Int)=    0.0000006241
 Iter  84:  RMS(Cart)=    0.0000001163 RMS(Int)=    0.0000006106
 Iter  85:  RMS(Cart)=    0.0000001132 RMS(Int)=    0.0000005974
 Iter  86:  RMS(Cart)=    0.0000001101 RMS(Int)=    0.0000005847
 Iter  87:  RMS(Cart)=    0.0000001071 RMS(Int)=    0.0000005722
 Iter  88:  RMS(Cart)=    0.0000001042 RMS(Int)=    0.0000005601
 Iter  89:  RMS(Cart)=    0.0000001014 RMS(Int)=    0.0000005484
 Iter  90:  RMS(Cart)=    0.0000000991 RMS(Int)=    0.0000005369
 Iter  91:  RMS(Cart)=    0.0000000961 RMS(Int)=    0.0000005258
 Iter  92:  RMS(Cart)=    0.0000000937 RMS(Int)=    0.0000005149
 Iter  93:  RMS(Cart)=    0.0000000917 RMS(Int)=    0.0000005044
 Iter  94:  RMS(Cart)=    0.0000000889 RMS(Int)=    0.0000004941
 Iter  95:  RMS(Cart)=    0.0000000864 RMS(Int)=    0.0000004840
 Iter  96:  RMS(Cart)=    0.0000000839 RMS(Int)=    0.0000004743
 Iter  97:  RMS(Cart)=    0.0000000821 RMS(Int)=    0.0000004648
 Iter  98:  RMS(Cart)=    0.0000000802 RMS(Int)=    0.0000004555
 Iter  99:  RMS(Cart)=    0.0000000782 RMS(Int)=    0.0000004465
 RMS(Cart) too big - taking linear step, building new B-matrix and trying again
Imposing constraints:
 Iter   0:  RMS(Cart)=    0.0000561205 RMS(Int)=    0.0000181277
 Iter   1:  RMS(Cart)=    0.0000298898 RMS(Int)=    0.0000106003
 Iter   2:  RMS(Cart)=    0.0000162718 RMS(Int)=    0.0000071072
 Iter   3:  RMS(Cart)=    0.0000091420 RMS(Int)=    0.0000056361
 Iter   4:  RMS(Cart)=    0.0000053782 RMS(Int)=    0.0000050306
 Iter   5:  RMS(Cart)=    0.0000033764 RMS(Int)=    0.0000047392
 Iter   6:  RMS(Cart)=    0.0000023049 RMS(Int)=    0.0000045537
 Iter   7:  RMS(Cart)=    0.0000017258 RMS(Int)=    0.0000044051
 Iter   8:  RMS(Cart)=    0.0000014063 RMS(Int)=    0.0000042713
 Iter   9:  RMS(Cart)=    0.0000012223 RMS(Int)=    0.0000041451
 Iter  10:  RMS(Cart)=    0.0000011092 RMS(Int)=    0.0000040242
 Iter  11:  RMS(Cart)=    0.0000010337 RMS(Int)=    0.0000039076
 Iter  12:  RMS(Cart)=    0.0000009788 RMS(Int)=    0.0000037948
 Iter  13:  RMS(Cart)=    0.0000009353 RMS(Int)=    0.0000036857
 Iter  14:  RMS(Cart)=    0.0000008988 RMS(Int)=    0.0000035801
 Iter  15:  RMS(Cart)=    0.0000008664 RMS(Int)=    0.0000034778
 Iter  16:  RMS(Cart)=    0.0000008369 RMS(Int)=    0.0000033788
 Iter  17:  RMS(Cart)=    0.0000008094 RMS(Int)=    0.0000032829
 Iter  18:  RMS(Cart)=    0.0000007835 RMS(Int)=    0.0000031899
 Iter  19:  RMS(Cart)=    0.0000007587 RMS(Int)=    0.0000030999
 Iter  20:  RMS(Cart)=    0.0000007350 RMS(Int)=    0.0000030128
 Iter  21:  RMS(Cart)=    0.0000007122 RMS(Int)=    0.0000029283
 Iter  22:  RMS(Cart)=    0.0000006901 RMS(Int)=    0.0000028464
 Iter  23:  RMS(Cart)=    0.0000006690 RMS(Int)=    0.0000027671
 Iter  24:  RMS(Cart)=    0.0000006485 RMS(Int)=    0.0000026903
 Iter  25:  RMS(Cart)=    0.0000006287 RMS(Int)=    0.0000026158
 Iter  26:  RMS(Cart)=    0.0000006097 RMS(Int)=    0.0000025436
 Iter  27:  RMS(Cart)=    0.0000005911 RMS(Int)=    0.0000024736
 Iter  28:  RMS(Cart)=    0.0000005733 RMS(Int)=    0.0000024058
 Iter  29:  RMS(Cart)=    0.0000005558 RMS(Int)=    0.0000023401
 Iter  30:  RMS(Cart)=    0.0000005391 RMS(Int)=    0.0000022763
 Iter  31:  RMS(Cart)=    0.0000005229 RMS(Int)=    0.0000022145
 Iter  32:  RMS(Cart)=    0.0000005072 RMS(Int)=    0.0000021546
 Iter  33:  RMS(Cart)=    0.0000004920 RMS(Int)=    0.0000020965
 Iter  34:  RMS(Cart)=    0.0000004773 RMS(Int)=    0.0000020402
 Iter  35:  RMS(Cart)=    0.0000004630 RMS(Int)=    0.0000019856
 Iter  36:  RMS(Cart)=    0.0000004493 RMS(Int)=    0.0000019326
 Iter  37:  RMS(Cart)=    0.0000004358 RMS(Int)=    0.0000018812
 Iter  38:  RMS(Cart)=    0.0000004229 RMS(Int)=    0.0000018313
 Iter  39:  RMS(Cart)=    0.0000004104 RMS(Int)=    0.0000017830
 Iter  40:  RMS(Cart)=    0.0000003983 RMS(Int)=    0.0000017361
 Iter  41:  RMS(Cart)=    0.0000003865 RMS(Int)=    0.0000016906
 Iter  42:  RMS(Cart)=    0.0000003752 RMS(Int)=    0.0000016464
 Iter  43:  RMS(Cart)=    0.0000003643 RMS(Int)=    0.0000016036
 Iter  44:  RMS(Cart)=    0.0000003534 RMS(Int)=    0.0000015620
 Iter  45:  RMS(Cart)=    0.0000003430 RMS(Int)=    0.0000015217
 Iter  46:  RMS(Cart)=    0.0000003330 RMS(Int)=    0.0000014825
 Iter  47:  RMS(Cart)=    0.0000003234 RMS(Int)=    0.0000014446
 Iter  48:  RMS(Cart)=    0.0000003140 RMS(Int)=    0.0000014077
 Iter  49:  RMS(Cart)=    0.0000003047 RMS(Int)=    0.0000013719
 Iter  50:  RMS(Cart)=    0.0000002962 RMS(Int)=    0.0000013372
 Iter  51:  RMS(Cart)=    0.0000002875 RMS(Int)=    0.0000013034
 Iter  52:  RMS(Cart)=    0.0000002793 RMS(Int)=    0.0000012707
 Iter  53:  RMS(Cart)=    0.0000002709 RMS(Int)=    0.0000012389
 Iter  54:  RMS(Cart)=    0.0000002634 RMS(Int)=    0.0000012080
 Iter  55:  RMS(Cart)=    0.0000002559 RMS(Int)=    0.0000011781
 Iter  56:  RMS(Cart)=    0.0000002485 RMS(Int)=    0.0000011490
 Iter  57:  RMS(Cart)=    0.0000002413 RMS(Int)=    0.0000011207
 Iter  58:  RMS(Cart)=    0.0000002345 RMS(Int)=    0.0000010932
 Iter  59:  RMS(Cart)=    0.0000002278 RMS(Int)=    0.0000010666
 Iter  60:  RMS(Cart)=    0.0000002215 RMS(Int)=    0.0000010407
 Iter  61:  RMS(Cart)=    0.0000002152 RMS(Int)=    0.0000010156
 Iter  62:  RMS(Cart)=    0.0000002091 RMS(Int)=    0.0000009911
CONVERGED
Small eigenvalue found = 4.691e-03
Small eigenvalue found = 1.120e-02
Small eigenvalue found = 1.451e-02
The first mode is                       ....   91
The number of degrees of freedom        ....   81
Storing new coordinates                 .... done

    -----------------------------------------------------------------
                    Redundant Internal Coordinates


    -----------------------------------------------------------------
         Definition                    Initial Value    Approx d2E/dq
    -----------------------------------------------------------------
      1. B(C   1,C   0)                  1.5333         0.369027   
      2. B(C   2,C   1)                  1.5471         0.350825   
      3. B(C   3,C   2)                  1.5492         0.348147   
      4. B(O   4,C   0)                  1.4668         0.422031   
      5. B(O   4,C   3)                  1.4789         0.403699   
      6. B(H   5,C   0)                  1.0919         0.357632   
      7. B(H   6,C   1)                  1.0958         0.352561   
      8. B(H   7,C   1)                  1.0951         0.353431   
      9. B(H   8,C   2)                  1.0945         0.354166   
     10. B(H   9,C   2)                  1.0966         0.351438   
     11. B(H  10,C   3)                  1.0954         0.353010   
     12. B(H  11,C   3)                  1.0939         0.354989   
     13. B(H  13,C  12)                  1.0978         0.349888   
     14. B(H  14,C  12)                  1.0978         0.349934   
     15. B(O  15,C   0)                  1.5525         0.307993   
     16. B(O  15,C  12)                  1.5538         0.306623   
     17. B(C  16,C  12)                  1.5533         0.342895   
     18. B(C  17,C  16)                  1.5329         0.369613   
     19. B(C  18,C  17)                  1.5476         0.350242   
     20. B(C  19,C  18)                  1.5486         0.348911   
     21. B(O  20,C  16)                  1.4663         0.422884   
     22. B(O  20,C  19)                  1.4790         0.403602   
     23. B(H  21,C  16)                  1.0917         0.357835   
     24. B(H  22,C  17)                  1.0949         0.353720   
     25. B(O  23,C  17)                  1.5530         0.307462   
     26. B(H  24,C  18)                  1.0946         0.354011   
     27. B(H  25,C  18)                  1.0971         0.350784   
     28. B(H  26,C  19)                  1.0960         0.352240   
     29. B(H  27,C  19)                  1.0938         0.355137   
     30. B(H  28,O  23)                  1.0958         0.315738   
     31. A(O   4,C   0,H   5)          107.0228         0.328541   
     32. A(C   1,C   0,O  15)          111.3008         0.348740   
     33. A(C   1,C   0,O   4)          104.2481         0.367935   
     34. A(O   4,C   0,O  15)          110.4738         0.354548   
     35. A(C   1,C   0,H   5)          114.4368         0.323302   
     36. A(H   5,C   0,O  15)          109.1587         0.312058   
     37. A(C   0,C   1,C   2)          101.6799         0.358729   
     38. A(C   2,C   1,H   7)          112.8315         0.320016   
     39. A(C   2,C   1,H   6)          110.6711         0.319888   
     40. A(C   0,C   1,H   6)          110.0675         0.322546   
     41. A(H   6,C   1,H   7)          108.3682         0.289027   
     42. A(C   0,C   1,H   7)          113.1242         0.322677   
     43. A(C   1,C   2,H   8)          112.8320         0.320125   
     44. A(C   1,C   2,C   3)          103.1262         0.355196   
     45. A(C   1,C   2,H   9)          110.0802         0.319721   
     46. A(C   3,C   2,H   9)          110.6153         0.319321   
     47. A(C   3,C   2,H   8)          112.4040         0.319725   
     48. A(H   8,C   2,H   9)          107.7727         0.288977   
     49. A(O   4,C   3,H  10)          109.1297         0.325449   
     50. A(C   2,C   3,H  10)          112.5253         0.319554   
     51. A(C   2,C   3,O   4)          106.5279         0.361529   
     52. A(O   4,C   3,H  11)          107.1236         0.325748   
     53. A(H  10,C   3,H  11)          108.8728         0.289284   
     54. A(C   2,C   3,H  11)          112.4565         0.319846   
     55. A(C   0,O   4,C   3)          108.3151         0.371320   
     56. A(H  14,C  12,C  16)          107.7275         0.318307   
     57. A(H  13,C  12,H  14)          108.2102         0.288234   
     58. A(H  13,C  12,O  15)          109.2305         0.310731   
     59. A(H  14,C  12,O  15)          110.4743         0.310738   
     60. A(O  15,C  12,C  16)          112.7263         0.344201   
     61. A(H  13,C  12,C  16)          108.3480         0.318301   
     62. A(C   0,O  15,C  12)          115.1639         0.336025   
     63. A(C  12,C  16,C  17)          111.2819         0.357433   
     64. A(C  12,C  16,O  20)          110.4682         0.363462   
     65. A(C  17,C  16,O  20)          104.2393         0.368163   
     66. A(C  12,C  16,H  21)          109.1301         0.319469   
     67. A(C  17,C  16,H  21)          114.4630         0.323417   
     68. A(O  20,C  16,H  21)          107.0615         0.328682   
     69. A(C  16,C  17,C  18)          101.6931         0.358724   
     70. A(C  16,C  17,H  22)          110.1452         0.322804   
     71. A(C  18,C  17,H  22)          110.6399         0.319972   
     72. A(C  16,C  17,O  23)          113.1346         0.348732   
     73. A(C  18,C  17,O  23)          112.7931         0.345587   
     74. A(H  22,C  17,O  23)          108.3412         0.311416   
     75. A(C  17,C  18,C  19)          103.1099         0.355228   
     76. A(C  17,C  18,H  24)          112.8383         0.320015   
     77. A(C  19,C  18,H  24)          112.4590         0.319816   
     78. A(C  17,C  18,H  25)          110.0504         0.319537   
     79. A(C  19,C  18,H  25)          110.6379         0.319338   
     80. A(H  24,C  18,H  25)          107.7363         0.288873   
     81. A(C  18,C  19,O  20)          106.5208         0.361649   
     82. A(C  18,C  19,H  26)          112.5193         0.319554   
     83. A(O  20,C  19,H  26)          109.0873         0.325319   
     84. A(C  18,C  19,H  27)          112.4518         0.319982   
     85. A(O  20,C  19,H  27)          107.1893         0.325757   
     86. A(H  26,C  19,H  27)          108.8695         0.289204   
     87. A(C  16,O  20,C  19)          108.3456         0.371434   
     88. A(C  17,O  23,H  28)          109.7440         0.303244   
     89. D(H   7,C   1,C   0,H   5)     82.1513         0.010890   
     90. D(C   2,C   1,C   0,O  15)     79.0863         0.010890   
     91. D(H   7,C   1,C   0,O  15)    -42.1870         0.010890   
     92. D(H   6,C   1,C   0,O   4)     77.3263         0.010890   
     93. D(H   6,C   1,C   0,O  15)   -163.5729         0.010890   
     94. D(H   6,C   1,C   0,H   5)    -39.2346         0.010890   
     95. D(H   7,C   1,C   0,O   4)   -161.2879         0.010890   
     96. D(C   2,C   1,C   0,O   4)    -40.0145         0.010890 C 
     97. D(C   2,C   1,C   0,H   5)   -156.5754         0.010890   
     98. D(H   9,C   2,C   1,H   6)    160.0776         0.009912   
     99. D(H   8,C   2,C   1,C   0)    156.5478         0.009912   
    100. D(H   8,C   2,C   1,H   6)     39.6445         0.009912   
    101. D(C   3,C   2,C   1,C   0)     35.0270         0.009912 C 
    102. D(H   8,C   2,C   1,H   7)    -81.9753         0.009912   
    103. D(H   9,C   2,C   1,C   0)    -83.0190         0.009912   
    104. D(C   3,C   2,C   1,H   6)    -81.8764         0.009912   
    105. D(H   9,C   2,C   1,H   7)     38.4578         0.009912   
    106. D(C   3,C   2,C   1,H   7)    156.5039         0.009912   
    107. D(H  11,C   3,C   2,H   9)   -143.4628         0.009774   
    108. D(O   4,C   3,C   2,H   8)   -140.0066         0.009774   
    109. D(O   4,C   3,C   2,H   9)     99.4739         0.009774   
    110. D(H  10,C   3,C   2,C   1)   -137.7433         0.009774   
    111. D(H  10,C   3,C   2,H   8)    100.4468         0.009774   
    112. D(H  10,C   3,C   2,H   9)    -20.0727         0.009774   
    113. D(H  11,C   3,C   2,C   1)     98.8667         0.009774   
    114. D(O   4,C   3,C   2,C   1)    -18.1967         0.009774 C 
    115. D(H  11,C   3,C   2,H   8)    -22.9432         0.009774   
    116. D(C   3,O   4,C   0,C   1)     29.5918         0.014035 C 
    117. D(C   3,O   4,C   0,H   5)    151.2008         0.014035   
    118. D(C   3,O   4,C   0,O  15)    -90.0696         0.014035   
    119. D(C   0,O   4,C   3,C   2)     -6.8732         0.012866 C 
    120. D(C   0,O   4,C   3,H  10)    114.8547         0.012866   
    121. D(C   0,O   4,C   3,H  11)   -127.4273         0.012866   
    122. D(C   0,O  15,C  12,C  16)    120.0000         0.007733 C 
    123. D(C  12,O  15,C   0,O   4)     90.0000         0.007793 C 
    124. D(C  12,O  15,C   0,H   5)   -152.5786         0.007793   
    125. D(C   0,O  15,C  12,H  14)     -0.5818         0.007733   
    126. D(C   0,O  15,C  12,H  13)   -119.4984         0.007733   
    127. D(C  12,O  15,C   0,C   1)    -25.3124         0.007793   
    128. D(C  17,C  16,C  12,H  13)     63.6714         0.009506   
    129. D(H  21,C  16,C  12,H  14)    179.5554         0.009506   
    130. D(C  17,C  16,C  12,O  15)   -175.3224         0.009506   
    131. D(O  20,C  16,C  12,H  13)    178.9584         0.009506   
    132. D(O  20,C  16,C  12,H  14)     62.1073         0.009506   
    133. D(O  20,C  16,C  12,O  15)    -60.0354         0.009506 C 
    134. D(C  17,C  16,C  12,H  14)    -53.1797         0.009506   
    135. D(H  21,C  16,C  12,H  13)    -63.5935         0.009506   
    136. D(H  21,C  16,C  12,O  15)     57.4127         0.009506   
    137. D(C  18,C  17,C  16,C  12)     79.0876         0.010922   
    138. D(C  18,C  17,C  16,O  20)    -39.9920         0.010922 C 
    139. D(C  18,C  17,C  16,H  21)   -156.6077         0.010922   
    140. D(H  22,C  17,C  16,C  12)   -163.5677         0.010922   
    141. D(H  22,C  17,C  16,O  20)     77.3528         0.010922   
    142. D(H  22,C  17,C  16,H  21)    -39.2629         0.010922   
    143. D(O  23,C  17,C  16,C  12)    -42.1533         0.010922   
    144. D(O  23,C  17,C  16,O  20)   -161.2328         0.010922   
    145. D(O  23,C  17,C  16,H  21)     82.1515         0.010922   
    146. D(H  24,C  18,C  17,O  23)    -81.9071         0.009882   
    147. D(C  19,C  18,C  17,H  22)    -81.9520         0.009882   
    148. D(C  19,C  18,C  17,O  23)    156.5126         0.009882   
    149. D(H  24,C  18,C  17,C  16)    156.6146         0.009882   
    150. D(C  19,C  18,C  17,C  16)     35.0344         0.009882 C 
    151. D(H  24,C  18,C  17,H  22)     39.6283         0.009882   
    152. D(H  25,C  18,C  17,C  16)    -83.0154         0.009882   
    153. D(H  25,C  18,C  17,H  22)    159.9983         0.009882   
    154. D(H  25,C  18,C  17,O  23)     38.4629         0.009882   
    155. D(H  27,C  19,C  18,H  25)   -143.4442         0.009813   
    156. D(O  20,C  19,C  18,H  24)   -140.0539         0.009813   
    157. D(O  20,C  19,C  18,H  25)     99.4198         0.009813   
    158. D(H  26,C  19,C  18,C  17)   -137.7042         0.009813   
    159. D(H  26,C  19,C  18,H  24)    100.4594         0.009813   
    160. D(H  26,C  19,C  18,H  25)    -20.0669         0.009813   
    161. D(H  27,C  19,C  18,C  17)     98.9185         0.009813   
    162. D(O  20,C  19,C  18,C  17)    -18.2175         0.009813 C 
    163. D(H  27,C  19,C  18,H  24)    -22.9180         0.009813   
    164. D(C  19,O  20,C  16,C  12)    -90.0723         0.014091   
    165. D(C  19,O  20,C  16,C  17)     29.5590         0.014091 C 
    166. D(C  19,O  20,C  16,H  21)    151.2126         0.014091   
    167. D(C  16,O  20,C  19,C  18)     -6.8334         0.012860 C 
    168. D(C  16,O  20,C  19,H  26)    114.8593         0.012860   
    169. D(C  16,O  20,C  19,H  27)   -127.4127         0.012860   
    170. D(H  28,O  23,C  17,C  16)     57.6535         0.007770   
    171. D(H  28,O  23,C  17,C  18)    -57.0926         0.007770   
    172. D(H  28,O  23,C  17,H  22)   -179.9211         0.007770   
    -----------------------------------------------------------------

Number of atoms                         .... 29
Number of degrees of freedom            .... 172

Time needed for optimization step       :     1.44 sec

         *************************************************************
         *                GEOMETRY OPTIMIZATION CYCLE   1            *
         *************************************************************
---------------------------------
CARTESIAN COORDINATES (ANGSTROEM)
---------------------------------
  C    -21.048033   26.221898   46.251027
  C    -20.361089   27.557898   45.943853
  C    -20.329141   28.222116   47.340760
  C    -20.110095   27.022253   48.295919
  O    -20.473022   25.807138   47.535092
  H    -20.832981   25.427841   45.533106
  H    -19.344078   27.381892   45.575885
  H    -20.898112   28.156771   45.200767
  H    -19.543180   28.978170   47.433663
  H    -21.289166   28.710101   47.547680
  H    -20.733108   27.082344   49.194904
  H    -19.064093   26.913346   48.596944
  C    -23.061026   27.815906   46.783028
  H    -23.613072   27.754872   47.730000
  H    -22.200023   28.480886   46.930099
  O    -22.586035   26.393915   46.374989
  C    -23.985945   28.467980   45.719002
  C    -24.340931   29.909971   46.099051
  C    -23.060886   30.669959   45.676168
  C    -22.601827   29.907009   44.409159
  O    -23.283862   28.595026   44.438052
  H    -24.847951   27.820011   45.548918
  H    -25.202887   30.252021   45.517015
  O    -24.671020   30.079905   47.607039
  H    -23.241847   31.731973   45.482209
  H    -22.302936   30.598901   46.466211
  H    -21.517830   29.746983   44.385218
  H    -22.905757   30.409062   43.486165
  H    -23.821066   29.744854   48.212075

----------------------------
CARTESIAN COORDINATES (A.U.)
----------------------------
  NO LB      ZA    FRAG     MASS         X           Y           Z
   0 C     6.0000    0    12.011  -39.775019   49.552206   87.401775
   1 C     6.0000    0    12.011  -38.476882   52.076881   86.821300
   2 C     6.0000    0    12.011  -38.416509   53.332071   89.461072
   3 C     6.0000    0    12.011  -38.002572   51.064658   91.266061
   4 O     8.0000    0    15.999  -38.688405   48.768423   89.828306
   5 H     1.0000    0     1.008  -39.368630   48.051655   86.045100
   6 H     1.0000    0     1.008  -36.555010   51.744277   86.125941
   7 H     1.0000    0     1.008  -39.491709   53.208586   85.417070
   8 H     1.0000    0     1.008  -36.931259   54.760804   89.636633
   9 H     1.0000    0     1.008  -40.230694   54.254227   89.852093
  10 H     1.0000    0     1.008  -39.179896   51.178212   92.964896
  11 H     1.0000    0     1.008  -36.025914   50.858852   91.834916
  12 C     6.0000    0    12.011  -43.579024   52.564445   88.407112
  13 H     1.0000    0     1.008  -44.622239   52.449106   90.196628
  14 H     1.0000    0     1.008  -41.951964   53.821075   88.685034
  15 O     8.0000    0    15.999  -42.681420   49.877271   87.636028
  16 C     6.0000    0    12.011  -45.326867   53.796685   86.396394
  17 C     6.0000    0    12.011  -45.997694   56.521653   87.114582
  18 C     6.0000    0    12.011  -43.578758   57.957823   86.315448
  19 C     6.0000    0    12.011  -42.711263   56.516057   83.921148
  20 O     8.0000    0    15.999  -44.000123   54.036767   83.975749
  21 H     1.0000    0     1.008  -46.955823   52.572201   86.074981
  22 H     1.0000    0     1.008  -47.626554   57.168034   86.014692
  23 O     8.0000    0    15.999  -46.621471   56.842783   89.964266
  24 H     1.0000    0     1.008  -43.920725   59.964739   85.948919
  25 H     1.0000    0     1.008  -42.146442   57.823543   87.808414
  26 H     1.0000    0     1.008  -40.662805   56.213651   83.875907
  27 H     1.0000    0     1.008  -43.285608   57.464800   82.176942
  28 H     1.0000    0     1.008  -45.015291   56.209628   91.107618

--------------------------------
INTERNAL COORDINATES (ANGSTROEM)
--------------------------------
 C      0   0   0     0.000000000000     0.00000000     0.00000000
 C      1   0   0     1.533334275362     0.00000000     0.00000000
 C      2   1   0     1.547103422529   101.67907390     0.00000000
 C      3   2   1     1.549188819996   103.12737509    35.02687180
 O      1   2   3     1.466801281701   104.24948604   319.98542309
 H      1   2   3     1.091872245274   114.43876658   203.42640133
 H      2   1   3     1.095759553917   110.06782188   117.34000099
 H      2   1   3     1.095088580892   113.12442239   238.72597460
 H      3   2   1     1.094523183857   112.83161078   156.54780790
 H      3   2   1     1.096628013503   110.07982737   276.98070077
 H      4   3   2     1.095413164062   112.52534669   222.25678475
 H      4   3   2     1.093891219455   112.45670684    98.86663270
 C     10   3   2     2.127074281731   118.31758963    34.02876955
 H     13  10   3     1.097831498910    97.58470158   126.22229251
 H     13  10   3     1.097795518300    17.03380296   256.13330255
 O      1   2   3     1.552547583812   111.30349807    79.08752829
 C     13  10   3     1.553327074379   124.47353283   244.68732466
 C     17  13  10     1.532902149519   111.28197575   310.31947152
 C     18  17  13     1.547555814825   101.69303241    79.08761658
 C     19  18  17     1.548592586835   103.10990615    35.03435533
 O     17  13  10     1.466251683716   110.46822354    65.60657469
 H     17  13  10     1.091717912283   109.13002027   183.05451611
 H     18  17  13     1.094866201871   110.14516088   196.43236607
 O     18  17  13     1.553017707562   113.13461541   317.84676578
 H     19  18  17     1.094641950594   112.83827341   156.61463405
 H     19  18  17     1.097134905105   110.05034461   276.98463073
 H     20  19  18     1.096007299246   112.51927048   222.29582885
 H     20  19  18     1.093777399657   112.45181927    98.91845264
 H     24  18  17     1.095787388137   109.74395556    57.65353159

---------------------------
INTERNAL COORDINATES (A.U.)
---------------------------
 C      0   0   0     0.000000000000     0.00000000     0.00000000
 C      1   0   0     2.897581852189     0.00000000     0.00000000
 C      2   1   0     2.923601769431   101.67907390     0.00000000
 C      3   2   1     2.927542599525   103.12737509    35.02687180
 O      1   2   3     2.771852715300   104.24948604   319.98542309
 H      1   2   3     2.063339516798   114.43876658   203.42640133
 H      2   1   3     2.070685465531   110.06782188   117.34000099
 H      2   1   3     2.069417510270   113.12442239   238.72597460
 H      3   2   1     2.068349064717   112.83161078   156.54780790
 H      3   2   1     2.072326616307   110.07982737   276.98070077
 H      4   3   2     2.070030883569   112.52534669   222.25678475
 H      4   3   2     2.067154825070   112.45670684    98.86663270
 C     10   3   2     4.019587858978   118.31758963    34.02876955
 H     13  10   3     2.074600874133    97.58470158   126.22229251
 H     13  10   3     2.074532880634    17.03380296   256.13330255
 O      1   2   3     2.933889743286   111.30349807    79.08752829
 C     13  10   3     2.935362766982   124.47353283   244.68732466
 C     17  13  10     2.896765252690   111.28197575   310.31947152
 C     18  17  13     2.924456666977   101.69303241    79.08761658
 C     19  18  17     2.926415882139   103.10990615    35.03435533
 O     17  13  10     2.770814125624   110.46822354    65.60657469
 H     17  13  10     2.063047869712   109.13002027   183.05451611
 H     18  17  13     2.068997274823   110.14516088   196.43236607
 O     18  17  13     2.934778148422   113.13461541   317.84676578
 H     19  18  17     2.068573501324   112.83827341   156.61463405
 H     19  18  17     2.073284502614   110.05034461   276.98463073
 H     20  19  18     2.071153636353   112.51927048   222.29582885
 H     20  19  18     2.066939736824   112.45181927    98.91845264
 H     24  18  17     2.070738064584   109.74395556    57.65353159

---------------------
BASIS SET INFORMATION
---------------------
There are 3 groups of distinct atoms

 Group   1 Type C   : 10s4p contracted to 3s2p pattern {631/31}
 Group   2 Type O   : 10s4p contracted to 3s2p pattern {631/31}
 Group   3 Type H   : 4s contracted to 2s pattern {31}

Atom   0C    basis set group =>   1
Atom   1C    basis set group =>   1
Atom   2C    basis set group =>   1
Atom   3C    basis set group =>   1
Atom   4O    basis set group =>   2
Atom   5H    basis set group =>   3
Atom   6H    basis set group =>   3
Atom   7H    basis set group =>   3
Atom   8H    basis set group =>   3
Atom   9H    basis set group =>   3
Atom  10H    basis set group =>   3
Atom  11H    basis set group =>   3
Atom  12C    basis set group =>   1
Atom  13H    basis set group =>   3
Atom  14H    basis set group =>   3
Atom  15O    basis set group =>   2
Atom  16C    basis set group =>   1
Atom  17C    basis set group =>   1
Atom  18C    basis set group =>   1
Atom  19C    basis set group =>   1
Atom  20O    basis set group =>   2
Atom  21H    basis set group =>   3
Atom  22H    basis set group =>   3
Atom  23O    basis set group =>   2
Atom  24H    basis set group =>   3
Atom  25H    basis set group =>   3
Atom  26H    basis set group =>   3
Atom  27H    basis set group =>   3
Atom  28H    basis set group =>   3
------------------------------------------------------------------------------
                           ORCA GTO INTEGRAL CALCULATION
------------------------------------------------------------------------------

                         BASIS SET STATISTICS AND STARTUP INFO

 # of primitive gaussian shells          ...  246
 # of primitive gaussian functions       ...  350
 # of contracted shells                  ...   97
 # of contracted basis functions         ...  149
 Highest angular momentum                ...    1
 Maximum contraction depth               ...    6
 Integral package used                   ... LIBINT
 Integral threshhold            Thresh   ...  2.500e-11
 Primitive cut-off              TCut     ...  2.500e-12


------------------------------ INTEGRAL EVALUATION ----------------------------


 * One electron integrals 
 Pre-screening matrix                    ... done
 Shell pair data                         ... done (   0.002 sec)

-------------------------------------------------------------------------------
                                 ORCA SCF
-------------------------------------------------------------------------------

------------
SCF SETTINGS
------------
Hamiltonian:
 Density Functional     Method          .... DFT(GTOs)
 Exchange Functional    Exchange        .... B88
   X-Alpha parameter    XAlpha          ....  0.666667
   Becke's b parameter  XBeta           ....  0.004200
 Correlation Functional Correlation     .... LYP
 LDA part of GGA corr.  LDAOpt          .... VWN-5
 Gradients option       PostSCFGGA      .... off
 Hybrid DFT is turned on
   Fraction HF Exchange ScalHFX         ....  0.200000
   Scaling of DF-GGA-X  ScalDFX         ....  0.720000
   Scaling of DF-GGA-C  ScalDFC         ....  0.810000
   Scaling of DF-LDA-C  ScalLDAC        ....  1.000000
   Perturbative correction              ....  0.000000
   Density functional embedding theory  .... OFF
   NL short-range parameter             ....  4.800000


General Settings:
 Integral files         IntName         .... project_8053/ensemble_90_120
 Hartree-Fock type      HFTyp           .... RHF
 Total Charge           Charge          ....    0
 Multiplicity           Mult            ....    1
 Number of Electrons    NEL             ....  102
 Basis Dimension        Dim             ....  149
 Nuclear Repulsion      ENuc            ....    901.5041504739 Eh

Convergence Acceleration:
 DIIS                   CNVDIIS         .... on
   Start iteration      DIISMaxIt       ....    12
   Startup error        DIISStart       ....  0.200000
   # of expansion vecs  DIISMaxEq       ....     5
   Bias factor          DIISBfac        ....   1.050
   Max. coefficient     DIISMaxC        ....  10.000
 Newton-Raphson         CNVNR           .... off
 SOSCF                  CNVSOSCF        .... on
   Start iteration      SOSCFMaxIt      ....   150
   Startup grad/error   SOSCFStart      ....  0.003300
 Level Shifting         CNVShift        .... on
   Level shift para.    LevelShift      ....    0.2500
   Turn off err/grad.   ShiftErr        ....    0.0010
 Zerner damping         CNVZerner       .... off
 Static damping         CNVDamp         .... on
   Fraction old density DampFac         ....    0.7000
   Max. Damping (<1)    DampMax         ....    0.9800
   Min. Damping (>=0)   DampMin         ....    0.0000
   Turn off err/grad.   DampErr         ....    0.1000
 Fernandez-Rico         CNVRico         .... off

SCF Procedure:
 Maximum # iterations   MaxIter         ....   125
 SCF integral mode      SCFMode         .... Direct
   Integral package                     .... LIBINT
 Reset frequency        DirectResetFreq ....    20
 Integral Threshold     Thresh          ....  2.500e-11 Eh
 Primitive CutOff       TCut            ....  2.500e-12 Eh

Convergence Tolerance:
 Convergence Check Mode ConvCheckMode   .... Total+1el-Energy
 Convergence forced     ConvForced      .... 0
 Energy Change          TolE            ....  1.000e-08 Eh
 1-El. energy change                    ....  1.000e-05 Eh
 Orbital Gradient       TolG            ....  1.000e-05
 Orbital Rotation angle TolX            ....  1.000e-05
 DIIS Error             TolErr          ....  5.000e-07


Diagonalization of the overlap matrix:
Smallest eigenvalue                        ... 3.499e-03
Time for diagonalization                   ...    0.006 sec
Threshold for overlap eigenvalues          ... 1.000e-08
Number of eigenvalues below threshold      ... 0
Time for construction of square roots      ...    2.958 sec
Total time needed                          ...    2.965 sec

-------------------
DFT GRID GENERATION
-------------------

General Integration Accuracy     IntAcc      ...  4.340
Radial Grid Type                 RadialGrid  ... Gauss-Chebyshev
Angular Grid (max. acc.)         AngularGrid ... Lebedev-110
Angular grid pruning method      GridPruning ... 3 (G Style)
Weight generation scheme         WeightScheme... Becke
Basis function cutoff            BFCut       ...    1.0000e-11
Integration weight cutoff        WCut        ...    1.0000e-14
Grids for H and He will be reduced by one unit

# of grid points (after initial pruning)     ...  34472 (   0.0 sec)
# of grid points (after weights+screening)   ...  30727 (   0.3 sec)
nearest neighbour list constructed           ...    0.0 sec
Grid point re-assignment to atoms done       ...    0.0 sec
Grid point division into batches done        ...    0.0 sec
Reduced shell lists constructed in    0.4 sec

Total number of grid points                  ...    30727
Total number of batches                      ...      495
Average number of points per batch           ...       62
Average number of grid points per atom       ...     1060
Average number of shells per batch           ...    63.82 (65.79%)
Average number of basis functions per batch  ...   103.13 (69.22%)
Average number of large shells per batch     ...    45.92 (71.96%)
Average number of large basis fcns per batch ...    75.57 (73.27%)
Maximum spatial batch extension              ...  22.50, 21.15, 19.51 au
Average spatial batch extension              ...   3.27,  3.29,  3.28 au

Time for grid setup =    6.748 sec

------------------------------
INITIAL GUESS: MODEL POTENTIAL
------------------------------
Loading Hartree-Fock densities                     ... done
Calculating cut-offs                               ... done
Setting up the integral package                    ... done
Initializing the effective Hamiltonian             ... done
Starting the Coulomb interaction                   ... done (   0.4 sec)
Reading the grid                                   ... done
Mapping shells                                     ... done
Starting the XC term evaluation                    ... done (   0.4 sec)
  promolecular density results
     # of electrons  =    101.989827926
     EX              =    -83.710072346
     EC              =     -3.471170509
     EX+EC           =    -87.181242854
Transforming the Hamiltonian                       ... done (   0.1 sec)
Diagonalizing the Hamiltonian                      ... done (   0.0 sec)
Back transforming the eigenvectors                 ... done (   0.0 sec)
Now organizing SCF variables                       ... done
                      ------------------
                      INITIAL GUESS DONE (   8.5 sec)
                      ------------------
--------------
SCF ITERATIONS
--------------
ITER       Energy         Delta-E        Max-DP      RMS-DP      [F,P]     Damp
               ***  Starting incremental Fock matrix formation  ***
  0   -652.4918196715   0.000000000000 0.07780033  0.00316707  0.2373282 0.7000
  1   -652.6281250657  -0.136305394211 0.04696727  0.00218678  0.0952611 0.7000
                               ***Turning on DIIS***
  2   -652.6795953831  -0.051470317408 0.07957767  0.00351450  0.0296307 0.0000
  3   -652.7647151924  -0.085119809274 0.03195042  0.00142737  0.0520086 0.0000
  4   -652.7814951177  -0.016779925352 0.00968494  0.00043822  0.0124113 0.0000
  5   -652.7824563485  -0.000961230791 0.00356774  0.00014166  0.0037016 0.0000
                      *** Initiating the SOSCF procedure ***
                           *** Shutting down DIIS ***
                      *** Re-Reading the Fockian *** 
                      *** Removing any level shift *** 
ITER      Energy       Delta-E        Grad      Rot      Max-DP    RMS-DP
  6   -652.78252573  -0.0000693778  0.000137  0.000137  0.000800  0.000054
               *** Restarting incremental Fock matrix formation ***
  7   -652.78252821  -0.0000024817  0.000127  0.000287  0.000979  0.000037
  8   -652.78252525   0.0000029581  0.000252  0.000195  0.000699  0.000024
  9   -652.78252970  -0.0000044521  0.000026  0.000049  0.000233  0.000007
 10   -652.78252963   0.0000000729  0.000036  0.000031  0.000139  0.000004
 11   -652.78252977  -0.0000001411  0.000004  0.000006  0.000030  0.000001
 12   -652.78252977   0.0000000028  0.000006  0.000004  0.000019  0.000001
                  ***Gradient check signals convergence***
              ***Rediagonalizing the Fockian in SOSCF/NRSCF***

               *****************************************************
               *                     SUCCESS                       *
               *           SCF CONVERGED AFTER  13 CYCLES          *
               *****************************************************

Setting up the final grid:

General Integration Accuracy     IntAcc      ...  4.670
Radial Grid Type                 RadialGrid  ... Gauss-Chebyshev
Angular Grid (max. acc.)         AngularGrid ... Lebedev-302
Angular grid pruning method      GridPruning ... 3 (G Style)
Weight generation scheme         WeightScheme... Becke
Basis function cutoff            BFCut       ...    1.0000e-11
Integration weight cutoff        WCut        ...    1.0000e-14
Grids for H and He will be reduced by one unit

# of grid points (after initial pruning)     ... 135060 (   0.1 sec)
# of grid points (after weights+screening)   ... 117793 (   0.9 sec)
nearest neighbour list constructed           ...    0.0 sec
Grid point re-assignment to atoms done       ...    0.0 sec
Grid point division into batches done        ...    0.5 sec
Reduced shell lists constructed in    1.6 sec

Total number of grid points                  ...   117793
Total number of batches                      ...     1853
Average number of points per batch           ...       63
Average number of grid points per atom       ...     4062
Average number of shells per batch           ...    58.76 (60.58%)
Average number of basis functions per batch  ...    95.15 (63.86%)
Average number of large shells per batch     ...    41.34 (70.36%)
Average number of large basis fcns per batch ...    68.15 (71.62%)
Maximum spatial batch extension              ...  19.77, 17.61, 18.50 au
Average spatial batch extension              ...   2.17,  2.18,  2.16 au

Final grid set up in   13.6 sec
Final integration                            ... done (   8.7 sec)
Change in XC energy                          ...    -0.000341701
Integrated number of electrons               ...   102.001069405
Previous integrated no of electrons          ...   101.999328143

----------------
TOTAL SCF ENERGY
----------------

Total Energy       :         -652.78287147 Eh          -17763.12499 eV

Components:
Nuclear Repulsion  :          901.50415047 Eh           24531.17508 eV
Electronic Energy  :        -1554.28702195 Eh          -42294.30007 eV
One Electron Energy:        -2679.97119184 Eh          -72925.72360 eV
Two Electron Energy:         1125.68416989 Eh           30631.42353 eV

Virial components:
Potential Energy   :        -1301.93474407 Eh          -35427.44548 eV
Kinetic Energy     :          649.15187259 Eh           17664.32049 eV
Virial Ratio       :            2.00559345


DFT components:
N(Alpha)           :       51.000534702568 electrons
N(Beta)            :       51.000534702568 electrons
N(Total)           :      102.001069405135 electrons
E(X)               :      -67.622138064926 Eh       
E(C)               :       -4.079024446962 Eh       
E(XC)              :      -71.701162511888 Eh       
DFET-embed. en.    :        0.000000000000 Eh       

---------------
SCF CONVERGENCE
---------------

  Last Energy change         ...   -4.0725e-09  Tolerance :   1.0000e-08
  Last MAX-Density change    ...    2.1450e-06  Tolerance :   1.0000e-07
  Last RMS-Density change    ...    1.0352e-07  Tolerance :   5.0000e-09
  Last Orbital Gradient      ...    3.1585e-07  Tolerance :   1.0000e-05
  Last Orbital Rotation      ...    5.3050e-07  Tolerance :   1.0000e-05

             **** THE GBW FILE WAS UPDATED (project_8053/ensemble_90_120.gbw) ****
             **** DENSITY FILE WAS UPDATED (project_8053/ensemble_90_120.scfp) ****
             **** ENERGY FILE WAS UPDATED (project_8053/ensemble_90_120.en.tmp) ****
             **** THE GBW FILE WAS UPDATED (project_8053/ensemble_90_120.gbw) ****
             **** DENSITY FILE WAS UPDATED (project_8053/ensemble_90_120.scfp) ****
----------------
ORBITAL ENERGIES
----------------

  NO   OCC          E(Eh)            E(eV) 
   0   2.0000     -19.162930      -521.4498 
   1   2.0000     -19.148671      -521.0618 
   2   2.0000     -19.147441      -521.0284 
   3   2.0000     -19.143554      -520.9226 
   4   2.0000     -10.285002      -279.8691 
   5   2.0000     -10.257261      -279.1143 
   6   2.0000     -10.240753      -278.6651 
   7   2.0000     -10.240189      -278.6497 
   8   2.0000     -10.235304      -278.5168 
   9   2.0000     -10.227113      -278.2939 
  10   2.0000     -10.204918      -277.6899 
  11   2.0000     -10.199303      -277.5371 
  12   2.0000     -10.197285      -277.4822 
  13   2.0000      -1.037878       -28.2421 
  14   2.0000      -1.033167       -28.1139 
  15   2.0000      -0.982800       -26.7434 
  16   2.0000      -0.959947       -26.1215 
  17   2.0000      -0.805198       -21.9106 
  18   2.0000      -0.792831       -21.5740 
  19   2.0000      -0.771481       -20.9931 
  20   2.0000      -0.737568       -20.0703 
  21   2.0000      -0.689749       -18.7690 
  22   2.0000      -0.621901       -16.9228 
  23   2.0000      -0.611259       -16.6332 
  24   2.0000      -0.594610       -16.1802 
  25   2.0000      -0.578046       -15.7294 
  26   2.0000      -0.531836       -14.4720 
  27   2.0000      -0.517405       -14.0793 
  28   2.0000      -0.509513       -13.8646 
  29   2.0000      -0.494889       -13.4666 
  30   2.0000      -0.466500       -12.6941 
  31   2.0000      -0.454296       -12.3620 
  32   2.0000      -0.444110       -12.0849 
  33   2.0000      -0.432764       -11.7761 
  34   2.0000      -0.428909       -11.6712 
  35   2.0000      -0.422456       -11.4956 
  36   2.0000      -0.414956       -11.2915 
  37   2.0000      -0.401262       -10.9189 
  38   2.0000      -0.387907       -10.5555 
  39   2.0000      -0.382197       -10.4001 
  40   2.0000      -0.367966       -10.0129 
  41   2.0000      -0.363694        -9.8966 
  42   2.0000      -0.346260        -9.4222 
  43   2.0000      -0.339404        -9.2357 
  44   2.0000      -0.321011        -8.7352 
  45   2.0000      -0.318753        -8.6737 
  46   2.0000      -0.294325        -8.0090 
  47   2.0000      -0.275367        -7.4931 
  48   2.0000      -0.266739        -7.2583 
  49   2.0000      -0.259238        -7.0542 
  50   2.0000      -0.241899        -6.5824 
  51   0.0000       0.007989         0.2174 
  52   0.0000       0.052019         1.4155 
  53   0.0000       0.069338         1.8868 
  54   0.0000       0.085323         2.3218 
  55   0.0000       0.088487         2.4079 
  56   0.0000       0.099059         2.6955 
  57   0.0000       0.111212         3.0262 
  58   0.0000       0.118135         3.2146 
  59   0.0000       0.128539         3.4977 
  60   0.0000       0.129606         3.5268 
  61   0.0000       0.136907         3.7254 
  62   0.0000       0.141508         3.8506 
  63   0.0000       0.148215         4.0331 
  64   0.0000       0.158621         4.3163 
  65   0.0000       0.163578         4.4512 
  66   0.0000       0.171445         4.6653 
  67   0.0000       0.180159         4.9024 
  68   0.0000       0.181701         4.9443 
  69   0.0000       0.198897         5.4123 
  70   0.0000       0.205647         5.5959 
  71   0.0000       0.208991         5.6869 
  72   0.0000       0.222816         6.0631 
  73   0.0000       0.233324         6.3491 
  74   0.0000       0.238060         6.4780 
  75   0.0000       0.260286         7.0827 
  76   0.0000       0.262388         7.1399 
  77   0.0000       0.277501         7.5512 
  78   0.0000       0.287403         7.8206 
  79   0.0000       0.305092         8.3020 
  80   0.0000       0.325521         8.8579 
  81   0.0000       0.516652        14.0588 
  82   0.0000       0.524213        14.2646 
  83   0.0000       0.544453        14.8153 
  84   0.0000       0.561028        15.2663 
  85   0.0000       0.561720        15.2852 
  86   0.0000       0.562939        15.3184 
  87   0.0000       0.567269        15.4362 
  88   0.0000       0.576019        15.6743 
  89   0.0000       0.581972        15.8363 
  90   0.0000       0.590190        16.0599 
  91   0.0000       0.609665        16.5898 
  92   0.0000       0.622488        16.9388 
  93   0.0000       0.625814        17.0293 
  94   0.0000       0.637780        17.3549 
  95   0.0000       0.655568        17.8389 
  96   0.0000       0.659576        17.9480 
  97   0.0000       0.676836        18.4176 
  98   0.0000       0.689487        18.7619 
  99   0.0000       0.707017        19.2389 
 100   0.0000       0.731049        19.8929 
 101   0.0000       0.765184        20.8217 
 102   0.0000       0.771668        20.9982 
 103   0.0000       0.791621        21.5411 
 104   0.0000       0.817155        22.2359 
 105   0.0000       0.831832        22.6353 
 106   0.0000       0.844762        22.9872 
 107   0.0000       0.870384        23.6843 
 108   0.0000       0.872350        23.7378 
 109   0.0000       0.876533        23.8517 
 110   0.0000       0.884144        24.0588 
 111   0.0000       0.889960        24.2171 
 112   0.0000       0.899341        24.4723 
 113   0.0000       0.912127        24.8202 
 114   0.0000       0.915584        24.9143 
 115   0.0000       0.931888        25.3580 
 116   0.0000       0.941546        25.6208 
 117   0.0000       0.945437        25.7266 
 118   0.0000       0.950944        25.8765 
 119   0.0000       0.967067        26.3152 
 120   0.0000       0.979696        26.6589 
 121   0.0000       0.993885        27.0450 
 122   0.0000       1.028792        27.9948 
 123   0.0000       1.046131        28.4667 
 124   0.0000       1.070401        29.1271 
 125   0.0000       1.078975        29.3604 
 126   0.0000       1.100226        29.9387 
 127   0.0000       1.142326        31.0843 
 128   0.0000       1.203006        32.7355 
 129   0.0000       1.225032        33.3348 
 130   0.0000       1.236738        33.6534 
 131   0.0000       1.248326        33.9687 
 132   0.0000       1.296368        35.2760 
 133   0.0000       1.302739        35.4493 
 134   0.0000       1.335966        36.3535 
 135   0.0000       1.373691        37.3800 
 136   0.0000       1.409313        38.3494 
 137   0.0000       1.411055        38.3968 
 138   0.0000       1.434960        39.0472 
 139   0.0000       1.481575        40.3157 
 140   0.0000       1.530915        41.6583 
 141   0.0000       1.566655        42.6308 
 142   0.0000       1.643528        44.7227 
 143   0.0000       1.723185        46.8903 
 144   0.0000       1.775182        48.3051 
 145   0.0000       1.896134        51.5964 
 146   0.0000       1.988597        54.1125 
 147   0.0000       2.029257        55.2189 
 148   0.0000       2.136027        58.1243 

                    ********************************
                    * MULLIKEN POPULATION ANALYSIS *
                    ********************************

-----------------------
MULLIKEN ATOMIC CHARGES
-----------------------
   0 C :    0.292692
   1 C :   -0.311034
   2 C :   -0.323772
   3 C :    0.005842
   4 O :   -0.492614
   5 H :    0.173371
   6 H :    0.157384
   7 H :    0.185606
   8 H :    0.144816
   9 H :    0.157034
  10 H :    0.147542
  11 H :    0.150488
  12 C :   -0.011381
  13 H :    0.141273
  14 H :    0.065068
  15 O :   -0.492645
  16 C :    0.072009
  17 C :    0.081099
  18 C :   -0.319315
  19 C :   -0.014880
  20 O :   -0.500242
  21 H :    0.172213
  22 H :    0.173115
  23 O :   -0.584566
  24 H :    0.164146
  25 H :    0.140590
  26 H :    0.134496
  27 H :    0.153413
  28 H :    0.338250
Sum of atomic charges:    0.0000000

--------------------------------
MULLIKEN REDUCED ORBITAL CHARGES
--------------------------------
  0 C s       :     3.227310  s :     3.227310
      pz      :     0.806640  p :     2.479997
      px      :     0.691037
      py      :     0.982320
  1 C s       :     3.326811  s :     3.326811
      pz      :     0.965230  p :     2.984222
      px      :     1.061834
      py      :     0.957158
  2 C s       :     3.332130  s :     3.332130
      pz      :     0.906824  p :     2.991642
      px      :     1.081457
      py      :     1.003361
  3 C s       :     3.257038  s :     3.257038
      pz      :     0.932429  p :     2.737120
      px      :     1.061054
      py      :     0.743637
  4 O s       :     3.941969  s :     3.941969
      pz      :     1.317441  p :     4.550645
      px      :     1.726943
      py      :     1.506260
  5 H s       :     0.826629  s :     0.826629
  6 H s       :     0.842616  s :     0.842616
  7 H s       :     0.814394  s :     0.814394
  8 H s       :     0.855184  s :     0.855184
  9 H s       :     0.842966  s :     0.842966
 10 H s       :     0.852458  s :     0.852458
 11 H s       :     0.849512  s :     0.849512
 12 C s       :     3.293288  s :     3.293288
      pz      :     0.991492  p :     2.718094
      px      :     0.985656
      py      :     0.740946
 13 H s       :     0.858727  s :     0.858727
 14 H s       :     0.934932  s :     0.934932
 15 O s       :     3.957840  s :     3.957840
      pz      :     1.816226  p :     4.534805
      px      :     1.322337
      py      :     1.396242
 16 C s       :     3.274759  s :     3.274759
      pz      :     0.722148  p :     2.653232
      px      :     0.984863
      py      :     0.946221
 17 C s       :     3.287633  s :     3.287633
      pz      :     0.717943  p :     2.631268
      px      :     0.982179
      py      :     0.931145
 18 C s       :     3.327644  s :     3.327644
      pz      :     0.973073  p :     2.991671
      px      :     0.965591
      py      :     1.053008
 19 C s       :     3.263813  s :     3.263813
      pz      :     1.007198  p :     2.751067
      px      :     0.998157
      py      :     0.745712
 20 O s       :     3.949498  s :     3.949498
      pz      :     1.478601  p :     4.550744
      px      :     1.622589
      py      :     1.449554
 21 H s       :     0.827787  s :     0.827787
 22 H s       :     0.826885  s :     0.826885
 23 O s       :     3.955513  s :     3.955513
      pz      :     1.224677  p :     4.629053
      px      :     1.537284
      py      :     1.867092
 24 H s       :     0.835854  s :     0.835854
 25 H s       :     0.859410  s :     0.859410
 26 H s       :     0.865504  s :     0.865504
 27 H s       :     0.846587  s :     0.846587
 28 H s       :     0.661750  s :     0.661750


                     *******************************
                     * LOEWDIN POPULATION ANALYSIS *
                     *******************************

----------------------
LOEWDIN ATOMIC CHARGES
----------------------
   0 C :    0.187270
   1 C :   -0.238473
   2 C :   -0.237605
   3 C :   -0.029814
   4 O :   -0.312751
   5 H :    0.123689
   6 H :    0.125664
   7 H :    0.131987
   8 H :    0.114500
   9 H :    0.116460
  10 H :    0.104394
  11 H :    0.107769
  12 C :   -0.080508
  13 H :    0.107928
  14 H :    0.110110
  15 O :   -0.337404
  16 C :    0.022510
  17 C :    0.042716
  18 C :   -0.238653
  19 C :   -0.035611
  20 O :   -0.315256
  21 H :    0.123027
  22 H :    0.127410
  23 O :   -0.430563
  24 H :    0.126407
  25 H :    0.105996
  26 H :    0.095079
  27 H :    0.107947
  28 H :    0.275775

-------------------------------
LOEWDIN REDUCED ORBITAL CHARGES
-------------------------------
  0 C s       :     2.979112  s :     2.979112
      pz      :     0.920019  p :     2.833619
      px      :     0.833026
      py      :     1.080573
  1 C s       :     2.977104  s :     2.977104
      pz      :     1.071103  p :     3.261369
      px      :     1.122420
      py      :     1.067846
  2 C s       :     2.982307  s :     2.982307
      pz      :     1.044259  p :     3.255298
      px      :     1.121725
      py      :     1.089314
  3 C s       :     2.982657  s :     2.982657
      pz      :     1.036919  p :     3.047156
      px      :     1.123919
      py      :     0.886319
  4 O s       :     3.611272  s :     3.611272
      pz      :     1.382843  p :     4.701479
      px      :     1.762331
      py      :     1.556304
  5 H s       :     0.876311  s :     0.876311
  6 H s       :     0.874336  s :     0.874336
  7 H s       :     0.868013  s :     0.868013
  8 H s       :     0.885500  s :     0.885500
  9 H s       :     0.883540  s :     0.883540
 10 H s       :     0.895606  s :     0.895606
 11 H s       :     0.892231  s :     0.892231
 12 C s       :     3.006265  s :     3.006265
      pz      :     1.089921  p :     3.074243
      px      :     1.098250
      py      :     0.886072
 13 H s       :     0.892072  s :     0.892072
 14 H s       :     0.889890  s :     0.889890
 15 O s       :     3.659358  s :     3.659358
      pz      :     1.843007  p :     4.678045
      px      :     1.385959
      py      :     1.449080
 16 C s       :     2.967220  s :     2.967220
      pz      :     0.890546  p :     3.010270
      px      :     1.047198
      py      :     1.072525
 17 C s       :     2.973365  s :     2.973365
      pz      :     0.838155  p :     2.983919
      px      :     1.088459
      py      :     1.057304
 18 C s       :     2.981882  s :     2.981882
      pz      :     1.075791  p :     3.256772
      px      :     1.069282
      py      :     1.111699
 19 C s       :     2.982107  s :     2.982107
      pz      :     1.101134  p :     3.053504
      px      :     1.071861
      py      :     0.880508
 20 O s       :     3.604669  s :     3.604669
      pz      :     1.538496  p :     4.710588
      px      :     1.665821
      py      :     1.506270
 21 H s       :     0.876973  s :     0.876973
 22 H s       :     0.872590  s :     0.872590
 23 O s       :     3.694690  s :     3.694690
      pz      :     1.285215  p :     4.735873
      px      :     1.572315
      py      :     1.878343
 24 H s       :     0.873593  s :     0.873593
 25 H s       :     0.894004  s :     0.894004
 26 H s       :     0.904921  s :     0.904921
 27 H s       :     0.892053  s :     0.892053
 28 H s       :     0.724225  s :     0.724225


                      *****************************
                      * MAYER POPULATION ANALYSIS *
                      *****************************

  NA   - Mulliken gross atomic population
  ZA   - Total nuclear charge
  QA   - Mulliken gross atomic charge
  VA   - Mayer's total valence
  BVA  - Mayer's bonded valence
  FA   - Mayer's free valence

  ATOM       NA         ZA         QA         VA         BVA        FA
  0 C      5.7073     6.0000     0.2927     3.6599     3.6599     0.0000
  1 C      6.3110     6.0000    -0.3110     3.6965     3.6965     0.0000
  2 C      6.3238     6.0000    -0.3238     3.7309     3.7309    -0.0000
  3 C      5.9942     6.0000     0.0058     3.6517     3.6517     0.0000
  4 O      8.4926     8.0000    -0.4926     1.8047     1.8047     0.0000
  5 H      0.8266     1.0000     0.1734     0.9303     0.9303    -0.0000
  6 H      0.8426     1.0000     0.1574     0.9330     0.9330    -0.0000
  7 H      0.8144     1.0000     0.1856     0.9350     0.9350     0.0000
  8 H      0.8552     1.0000     0.1448     0.9401     0.9401    -0.0000
  9 H      0.8430     1.0000     0.1570     0.9072     0.9072    -0.0000
 10 H      0.8525     1.0000     0.1475     0.9255     0.9255     0.0000
 11 H      0.8495     1.0000     0.1505     0.9283     0.9283     0.0000
 12 C      6.0114     6.0000    -0.0114     3.6087     3.6087     0.0000
 13 H      0.8587     1.0000     0.1413     0.9387     0.9387     0.0000
 14 H      0.9349     1.0000     0.0651     0.9049     0.9049     0.0000
 15 O      8.4926     8.0000    -0.4926     1.8258     1.8258     0.0000
 16 C      5.9280     6.0000     0.0720     3.5620     3.5620     0.0000
 17 C      5.9189     6.0000     0.0811     3.6337     3.6337     0.0000
 18 C      6.3193     6.0000    -0.3193     3.7106     3.7106     0.0000
 19 C      6.0149     6.0000    -0.0149     3.6507     3.6507    -0.0000
 20 O      8.5002     8.0000    -0.5002     1.7866     1.7866     0.0000
 21 H      0.8278     1.0000     0.1722     0.9301     0.9301    -0.0000
 22 H      0.8269     1.0000     0.1731     0.9277     0.9277     0.0000
 23 O      8.5846     8.0000    -0.5846     1.7712     1.7712     0.0000
 24 H      0.8359     1.0000     0.1641     0.9359     0.9359     0.0000
 25 H      0.8594     1.0000     0.1406     0.9391     0.9391     0.0000
 26 H      0.8655     1.0000     0.1345     0.9252     0.9252    -0.0000
 27 H      0.8466     1.0000     0.1534     0.9282     0.9282     0.0000
 28 H      0.6617     1.0000     0.3383     0.8583     0.8583    -0.0000

  Mayer bond orders larger than 0.100000
B(  0-C ,  1-C ) :   0.9278 B(  0-C ,  4-O ) :   0.9010 B(  0-C ,  5-H ) :   0.9300 
B(  0-C , 15-O ) :   0.8692 B(  1-C ,  2-C ) :   0.9476 B(  1-C ,  6-H ) :   0.9311 
B(  1-C ,  7-H ) :   0.8985 B(  2-C ,  3-C ) :   0.9352 B(  2-C ,  8-H ) :   0.9427 
B(  2-C ,  9-H ) :   0.8833 B(  3-C ,  4-O ) :   0.8521 B(  3-C , 10-H ) :   0.9323 
B(  3-C , 11-H ) :   0.9379 B( 12-C , 13-H ) :   0.9147 B( 12-C , 14-H ) :   0.8416 
B( 12-C , 15-O ) :   0.8917 B( 12-C , 16-C ) :   0.8859 B( 16-C , 17-C ) :   0.8758 
B( 16-C , 20-O ) :   0.8653 B( 16-C , 21-H ) :   0.9300 B( 17-C , 18-C ) :   0.9167 
B( 17-C , 22-H ) :   0.9306 B( 17-C , 23-O ) :   0.8903 B( 18-C , 19-C ) :   0.9299 
B( 18-C , 24-H ) :   0.9416 B( 18-C , 25-H ) :   0.9396 B( 19-C , 20-O ) :   0.8470 
B( 19-C , 26-H ) :   0.9174 B( 19-C , 27-H ) :   0.9393 B( 23-O , 28-H ) :   0.8035 


-------
TIMINGS
-------

Total SCF time: 0 days 0 hours 21 min 2 sec 

Total time                  ....    1262.212 sec
Sum of individual times     ....     717.037 sec  ( 56.8%)

Fock matrix formation       ....     684.179 sec  ( 54.2%)
  XC integration            ....     125.121 sec  ( 18.3% of F)
    Basis function eval.    ....       3.381 sec  (  2.7% of XC)
    Density eval.           ....       2.897 sec  (  2.3% of XC)
    XC-Functional eval.     ....       5.823 sec  (  4.7% of XC)
    XC-Potential eval.      ....       1.595 sec  (  1.3% of XC)
Diagonalization             ....       1.610 sec  (  0.1%)
Density matrix formation    ....       0.011 sec  (  0.0%)
Population analysis         ....       0.750 sec  (  0.1%)
Initial guess               ....       1.714 sec  (  0.1%)
Orbital Transformation      ....       0.000 sec  (  0.0%)
Orbital Orthonormalization  ....       0.000 sec  (  0.0%)
DIIS solution               ....       6.019 sec  (  0.5%)
SOSCF solution              ....       2.392 sec  (  0.2%)
Grid generation             ....      20.361 sec  (  1.6%)

-------------------------   --------------------
FINAL SINGLE POINT ENERGY      -652.782871472982
-------------------------   --------------------

------------------------------------------------------------------------------
                         ORCA SCF GRADIENT CALCULATION
------------------------------------------------------------------------------

Gradient of the Kohn-Sham DFT energy:
Kohn-Sham wavefunction type      ... RKS
Hartree-Fock exchange scaling    ...    0.200
Number of operators              ...    1
Number of atoms                  ...   29
Basis set dimensions             ...  149
Integral neglect threshold       ... 2.5e-11
Integral primitive cutoff        ... 2.5e-12

Nuclear repulsion gradient       ... done
One Electron Gradient            ... done
Pre-screening matrix             ... done
Starting the two electron gradient:
Two electron gradient done
Exchange-correlation gradient    ... done

------------------
CARTESIAN GRADIENT
------------------

   1   C   :    0.020039695   -0.011925734   -0.014950617
   2   C   :    0.004481165   -0.002510122   -0.001776621
   3   C   :   -0.029837311   -0.003448604   -0.008851605
   4   C   :    0.001432334   -0.001642519   -0.002510574
   5   O   :    0.006792373   -0.006017429    0.013750366
   6   H   :    0.012281621    0.000822389   -0.003226839
   7   H   :    0.000194874    0.000549855   -0.000846062
   8   H   :   -0.001623119    0.007102049   -0.001155369
   9   H   :   -0.002810335    0.001495223    0.000080578
  10   H   :   -0.038902044   -0.005181601   -0.016477933
  11   H   :   -0.000296232    0.001000882    0.000459899
  12   H   :    0.000032167    0.000002915    0.000387610
  13   C   :    0.011126918    0.016304477    0.020740611
  14   H   :   -0.001689592    0.009723780    0.001506981
  15   H   :    0.042246595    0.017152904    0.016576763
  16   O   :   -0.020759693   -0.028023529   -0.003022859
  17   C   :   -0.005622859    0.026959520   -0.006266929
  18   C   :   -0.011858415   -0.001521551   -0.035243878
  19   C   :    0.001447460   -0.003017758    0.005297728
  20   C   :    0.001066612   -0.005522600    0.000895133
  21   O   :    0.000389240   -0.002574546   -0.001276552
  22   H   :    0.001013342   -0.002055022    0.002816397
  23   H   :    0.003040175   -0.001422300   -0.011412778
  24   O   :   -0.046849612    0.019003521    0.001412272
  25   H   :    0.000350172    0.001137848   -0.000903428
  26   H   :    0.001305675   -0.001475554   -0.000581537
  27   H   :    0.001610621   -0.002410717    0.001031417
  28   H   :   -0.000104870    0.000019345    0.000060608
  29   H   :    0.051503043   -0.022525124    0.043487215

Difference to translation invariance:
           :    0.0000000000    0.0000000000   -0.0000000001

Norm of the cartesian gradient     ...    0.1365353490
RMS gradient                       ...    0.0146381259
MAX gradient                       ...    0.0515030430

-------
TIMINGS
-------

Total SCF gradient time            ...       29.936 sec

One electron gradient       ....       0.382 sec  (  1.3%)
Prescreening matrices       ....       0.056 sec  (  0.2%)
Two electron gradient       ....      17.716 sec  ( 59.2%)
XC gradient                 ....       8.935 sec  ( 29.8%)
------------------------------------------------------------------------------
                         ORCA GEOMETRY RELAXATION STEP
------------------------------------------------------------------------------

Reading the OPT-File                    .... done
Getting information on internals        .... done
Copying old internal coords+grads       .... done
Making the new internal coordinates     .... (new redundants).... done
Validating the new internal coordinates .... (new redundants).... done
Calculating the B-matrix                .... done
Calculating the G,G- and P matrices     .... done
Transforming gradient to internals      .... done
Projecting the internal gradient        .... done
Number of atoms                         ....  29
Number of internal coordinates          .... 172
Current Energy                          ....  -652.782871473 Eh
Current gradient norm                   ....     0.136535349 Eh/bohr
Maximum allowed component of the step   ....  0.300
Current trust radius                    ....  0.300
Evaluating the initial hessian          ....  (Almloef) done
Projecting the Hessian                  .... done
Forming the augmented Hessian           .... done
Diagonalizing the augmented Hessian     .... done
Last element of RFO vector              ....  0.818753171
Lowest eigenvalues of augmented Hessian:
 -0.231650083  0.007780460  0.032942095  0.033768183  0.036600396
Length of the computed step             ....  0.701243897
Warning: the length of the step is outside the trust region - taking restricted step instead
The input lambda is                     ....    -0.231650
   iter:   1  x=   -0.410305  g=    2.248710 f(x)=     0.401743
   iter:   2  x=   -0.618556  g=    0.782227 f(x)=     0.162900
   iter:   3  x=   -0.784916  g=    0.334212 f(x)=     0.055599
   iter:   4  x=   -0.849968  g=    0.196727 f(x)=     0.012798
   iter:   5  x=   -0.856768  g=    0.163831 f(x)=     0.001114
   iter:   6  x=   -0.856832  g=    0.160832 f(x)=     0.000010
   iter:   7  x=   -0.856832  g=    0.160805 f(x)=     0.000000
   iter:   8  x=   -0.856832  g=    0.160805 f(x)=     0.000000
The output lambda is                    ....    -0.856832 (8 iterations)
The final length of the internal step   ....  0.300000000
Converting the step to cartesian space:
 Initial RMS(Int)=    0.0228747855
Transforming coordinates:
[...]
  29   2.0000      -0.491583       -13.3766 
  30   2.0000      -0.469464       -12.7748 
  31   2.0000      -0.462123       -12.5750 
  32   2.0000      -0.451070       -12.2742 
  33   2.0000      -0.437890       -11.9156 
  34   2.0000      -0.430006       -11.7011 
  35   2.0000      -0.421320       -11.4647 
  36   2.0000      -0.413045       -11.2395 
  37   2.0000      -0.404130       -10.9969 
  38   2.0000      -0.384209       -10.4549 
  39   2.0000      -0.380619       -10.3572 
  40   2.0000      -0.361454        -9.8357 
  41   2.0000      -0.358691        -9.7605 
  42   2.0000      -0.347439        -9.4543 
  43   2.0000      -0.336771        -9.1640 
  44   2.0000      -0.319911        -8.7052 
  45   2.0000      -0.311835        -8.4855 
  46   2.0000      -0.291857        -7.9418 
  47   2.0000      -0.275296        -7.4912 
  48   2.0000      -0.266460        -7.2507 
  49   2.0000      -0.256250        -6.9729 
  50   2.0000      -0.240114        -6.5338 
  51   0.0000       0.041399         1.1265 
  52   0.0000       0.057176         1.5559 
  53   0.0000       0.082435         2.2432 
  54   0.0000       0.088630         2.4117 
  55   0.0000       0.099597         2.7102 
  56   0.0000       0.112023         3.0483 
  57   0.0000       0.122438         3.3317 
  58   0.0000       0.128502         3.4967 
  59   0.0000       0.133689         3.6379 
  60   0.0000       0.140213         3.8154 
  61   0.0000       0.146280         3.9805 
  62   0.0000       0.152241         4.1427 
  63   0.0000       0.157840         4.2951 
  64   0.0000       0.160228         4.3600 
  65   0.0000       0.174974         4.7613 
  66   0.0000       0.180048         4.8993 
  67   0.0000       0.189262         5.1501 
  68   0.0000       0.193507         5.2656 
  69   0.0000       0.198189         5.3930 
  70   0.0000       0.219661         5.9773 
  71   0.0000       0.224080         6.0975 
  72   0.0000       0.226786         6.1711 
  73   0.0000       0.241119         6.5612 
  74   0.0000       0.261018         7.1026 
  75   0.0000       0.261972         7.1286 
  76   0.0000       0.268888         7.3168 
  77   0.0000       0.287434         7.8215 
  78   0.0000       0.289537         7.8787 
  79   0.0000       0.314522         8.5586 
  80   0.0000       0.327630         8.9153 
  81   0.0000       0.496935        13.5223 
  82   0.0000       0.518813        14.1176 
  83   0.0000       0.535966        14.5844 
  84   0.0000       0.549874        14.9628 
  85   0.0000       0.560483        15.2515 
  86   0.0000       0.575773        15.6676 
  87   0.0000       0.578258        15.7352 
  88   0.0000       0.583673        15.8826 
  89   0.0000       0.592283        16.1168 
  90   0.0000       0.595096        16.1934 
  91   0.0000       0.607144        16.5212 
  92   0.0000       0.616837        16.7850 
  93   0.0000       0.633664        17.2429 
  94   0.0000       0.641777        17.4636 
  95   0.0000       0.645639        17.5687 
  96   0.0000       0.653941        17.7946 
  97   0.0000       0.672352        18.2956 
  98   0.0000       0.697293        18.9743 
  99   0.0000       0.700654        19.0658 
 100   0.0000       0.715409        19.4673 
 101   0.0000       0.749898        20.4058 
 102   0.0000       0.781783        21.2734 
 103   0.0000       0.792463        21.5640 
 104   0.0000       0.820606        22.3298 
 105   0.0000       0.838997        22.8303 
 106   0.0000       0.845930        23.0189 
 107   0.0000       0.867095        23.5949 
 108   0.0000       0.869967        23.6730 
 109   0.0000       0.879003        23.9189 
 110   0.0000       0.882318        24.0091 
 111   0.0000       0.895460        24.3667 
 112   0.0000       0.898264        24.4430 
 113   0.0000       0.903765        24.5927 
 114   0.0000       0.906108        24.6565 
 115   0.0000       0.929614        25.2961 
 116   0.0000       0.931058        25.3354 
 117   0.0000       0.942706        25.6523 
 118   0.0000       0.954711        25.9790 
 119   0.0000       0.962129        26.1809 
 120   0.0000       0.967159        26.3177 
 121   0.0000       0.991619        26.9833 
 122   0.0000       1.024242        27.8710 
 123   0.0000       1.043796        28.4031 
 124   0.0000       1.051514        28.6131 
 125   0.0000       1.076379        29.2897 
 126   0.0000       1.102111        29.9900 
 127   0.0000       1.115086        30.3430 
 128   0.0000       1.157660        31.5015 
 129   0.0000       1.200549        32.6686 
 130   0.0000       1.219403        33.1816 
 131   0.0000       1.244059        33.8526 
 132   0.0000       1.258557        34.2471 
 133   0.0000       1.294539        35.2262 
 134   0.0000       1.314232        35.7621 
 135   0.0000       1.359227        36.9864 
 136   0.0000       1.384007        37.6607 
 137   0.0000       1.420826        38.6626 
 138   0.0000       1.428212        38.8636 
 139   0.0000       1.486227        40.4423 
 140   0.0000       1.525233        41.5037 
 141   0.0000       1.605819        43.6966 
 142   0.0000       1.647911        44.8419 
 143   0.0000       1.717234        46.7283 
 144   0.0000       1.746997        47.5382 
 145   0.0000       1.918847        52.2145 
 146   0.0000       1.963174        53.4207 
 147   0.0000       2.010919        54.7199 
 148   0.0000       2.085659        56.7537 

                    ********************************
                    * MULLIKEN POPULATION ANALYSIS *
                    ********************************

-----------------------
MULLIKEN ATOMIC CHARGES
-----------------------
   0 C :    0.313296
   1 C :   -0.301969
   2 C :   -0.316907
   3 C :   -0.005070
   4 O :   -0.500613
   5 H :    0.169354
   6 H :    0.156813
   7 H :    0.171117
   8 H :    0.143489
   9 H :    0.139844
  10 H :    0.141140
  11 H :    0.146670
  12 C :   -0.020906
  13 H :    0.154595
  14 H :    0.109518
  15 O :   -0.516765
  16 C :    0.097379
  17 C :    0.081760
  18 C :   -0.320786
  19 C :   -0.017329
  20 O :   -0.508418
  21 H :    0.171519
  22 H :    0.170936
  23 O :   -0.595665
  24 H :    0.160283
  25 H :    0.129945
  26 H :    0.139508
  27 H :    0.152796
  28 H :    0.354466
Sum of atomic charges:   -0.0000000

--------------------------------
MULLIKEN REDUCED ORBITAL CHARGES
--------------------------------
  0 C s       :     3.169298  s :     3.169298
      pz      :     0.822198  p :     2.517405
      px      :     0.705576
      py      :     0.989631
  1 C s       :     3.322649  s :     3.322649
      pz      :     0.968507  p :     2.979320
      px      :     1.013741
      py      :     0.997073
  2 C s       :     3.320957  s :     3.320957
      pz      :     0.927442  p :     2.995950
      px      :     1.082244
      py      :     0.986264
  3 C s       :     3.260497  s :     3.260497
      pz      :     0.950340  p :     2.744574
      px      :     0.980688
      py      :     0.813545
  4 O s       :     3.935842  s :     3.935842
      pz      :     1.382038  p :     4.564770
      px      :     1.623263
      py      :     1.559469
  5 H s       :     0.830646  s :     0.830646
  6 H s       :     0.843187  s :     0.843187
  7 H s       :     0.828883  s :     0.828883
  8 H s       :     0.856511  s :     0.856511
  9 H s       :     0.860156  s :     0.860156
 10 H s       :     0.858860  s :     0.858860
 11 H s       :     0.853330  s :     0.853330
 12 C s       :     3.258889  s :     3.258889
      pz      :     0.996669  p :     2.762016
      px      :     0.995629
      py      :     0.769719
 13 H s       :     0.845405  s :     0.845405
 14 H s       :     0.890482  s :     0.890482
 15 O s       :     3.905876  s :     3.905876
      pz      :     1.795210  p :     4.610889
      px      :     1.368324
      py      :     1.447355
 16 C s       :     3.256355  s :     3.256355
      pz      :     0.752404  p :     2.646266
      px      :     0.916685
      py      :     0.977177
 17 C s       :     3.249724  s :     3.249724
      pz      :     0.770919  p :     2.668516
      px      :     0.973775
      py      :     0.923822
 18 C s       :     3.324505  s :     3.324505
      pz      :     0.991554  p :     2.996281
      px      :     0.966995
      py      :     1.037732
 19 C s       :     3.265641  s :     3.265641
      pz      :     1.017954  p :     2.751688
      px      :     1.031423
      py      :     0.702311
 20 O s       :     3.950136  s :     3.950136
      pz      :     1.520324  p :     4.558282
      px      :     1.660496
      py      :     1.377462
 21 H s       :     0.828481  s :     0.828481
 22 H s       :     0.829064  s :     0.829064
 23 O s       :     3.921015  s :     3.921015
      pz      :     1.212071  p :     4.674650
      px      :     1.559015
      py      :     1.903564
 24 H s       :     0.839717  s :     0.839717
 25 H s       :     0.870055  s :     0.870055
 26 H s       :     0.860492  s :     0.860492
 27 H s       :     0.847204  s :     0.847204
 28 H s       :     0.645534  s :     0.645534


                     *******************************
                     * LOEWDIN POPULATION ANALYSIS *
                     *******************************

----------------------
LOEWDIN ATOMIC CHARGES
----------------------
   0 C :    0.180525
   1 C :   -0.232849
   2 C :   -0.224939
   3 C :   -0.033239
   4 O :   -0.321506
   5 H :    0.114651
   6 H :    0.123870
   7 H :    0.126089
   8 H :    0.114381
   9 H :    0.101226
  10 H :    0.101040
  11 H :    0.104116
  12 C :   -0.049534
  13 H :    0.112552
  14 H :    0.087421
  15 O :   -0.310111
  16 C :    0.015591
  17 C :    0.034659
  18 C :   -0.241186
  19 C :   -0.033317
  20 O :   -0.317708
  21 H :    0.122777
  22 H :    0.121192
  23 O :   -0.404610
  24 H :    0.124293
  25 H :    0.101830
  26 H :    0.097883
  27 H :    0.107761
  28 H :    0.277142

-------------------------------
LOEWDIN REDUCED ORBITAL CHARGES
-------------------------------
  0 C s       :     2.943710  s :     2.943710
      pz      :     0.930169  p :     2.875765
      px      :     0.878732
      py      :     1.066864
  1 C s       :     2.979663  s :     2.979663
      pz      :     1.069964  p :     3.253186
      px      :     1.096016
      py      :     1.087206
  2 C s       :     2.976578  s :     2.976578
      pz      :     1.045042  p :     3.248361
      px      :     1.123496
      py      :     1.079822
  3 C s       :     2.984235  s :     2.984235
      pz      :     1.048336  p :     3.049004
      px      :     1.056034
      py      :     0.944633
  4 O s       :     3.604072  s :     3.604072
      pz      :     1.442749  p :     4.717435
      px      :     1.669733
      py      :     1.604953
  5 H s       :     0.885349  s :     0.885349
  6 H s       :     0.876130  s :     0.876130
  7 H s       :     0.873911  s :     0.873911
  8 H s       :     0.885619  s :     0.885619
  9 H s       :     0.898774  s :     0.898774
 10 H s       :     0.898960  s :     0.898960
 11 H s       :     0.895884  s :     0.895884
 12 C s       :     2.974249  s :     2.974249
      pz      :     1.091891  p :     3.075285
      px      :     1.077156
      py      :     0.906237
 13 H s       :     0.887448  s :     0.887448
 14 H s       :     0.912579  s :     0.912579
 15 O s       :     3.563160  s :     3.563160
      pz      :     1.819551  p :     4.746951
      px      :     1.425373
      py      :     1.502028
 16 C s       :     2.965165  s :     2.965165
      pz      :     0.921637  p :     3.019244
      px      :     1.009844
      py      :     1.087763
 17 C s       :     2.950593  s :     2.950593
      pz      :     0.897062  p :     3.014749
      px      :     1.069872
      py      :     1.047815
 18 C s       :     2.983206  s :     2.983206
      pz      :     1.084792  p :     3.257979
      px      :     1.070125
      py      :     1.103063
 19 C s       :     2.981793  s :     2.981793
      pz      :     1.107203  p :     3.051524
      px      :     1.100474
      py      :     0.843846
 20 O s       :     3.606022  s :     3.606022
      pz      :     1.572749  p :     4.711686
      px      :     1.701338
      py      :     1.437599
 21 H s       :     0.877223  s :     0.877223
 22 H s       :     0.878808  s :     0.878808
 23 O s       :     3.608988  s :     3.608988
      pz      :     1.276942  p :     4.795623
      px      :     1.605062
      py      :     1.913619
 24 H s       :     0.875707  s :     0.875707
 25 H s       :     0.898170  s :     0.898170
 26 H s       :     0.902117  s :     0.902117
 27 H s       :     0.892239  s :     0.892239
 28 H s       :     0.722858  s :     0.722858


                      *****************************
                      * MAYER POPULATION ANALYSIS *
                      *****************************

  NA   - Mulliken gross atomic population
  ZA   - Total nuclear charge
  QA   - Mulliken gross atomic charge
  VA   - Mayer's total valence
  BVA  - Mayer's bonded valence
  FA   - Mayer's free valence

  ATOM       NA         ZA         QA         VA         BVA        FA
  0 C      5.6867     6.0000     0.3133     3.6964     3.6964    -0.0000
  1 C      6.3020     6.0000    -0.3020     3.7017     3.7017    -0.0000
  2 C      6.3169     6.0000    -0.3169     3.7633     3.7633     0.0000
  3 C      6.0051     6.0000    -0.0051     3.6658     3.6658     0.0000
  4 O      8.5006     8.0000    -0.5006     1.7850     1.7850    -0.0000
  5 H      0.8306     1.0000     0.1694     0.9290     0.9290    -0.0000
  6 H      0.8432     1.0000     0.1568     0.9326     0.9326     0.0000
  7 H      0.8289     1.0000     0.1711     0.9427     0.9427    -0.0000
  8 H      0.8565     1.0000     0.1435     0.9374     0.9374    -0.0000
  9 H      0.8602     1.0000     0.1398     0.9336     0.9336    -0.0000
 10 H      0.8589     1.0000     0.1411     0.9268     0.9268    -0.0000
 11 H      0.8533     1.0000     0.1467     0.9281     0.9281    -0.0000
 12 C      6.0209     6.0000    -0.0209     3.6203     3.6203    -0.0000
 13 H      0.8454     1.0000     0.1546     0.9333     0.9333     0.0000
 14 H      0.8905     1.0000     0.1095     0.9406     0.9406     0.0000
 15 O      8.5168     8.0000    -0.5168     1.7873     1.7873    -0.0000
 16 C      5.9026     6.0000     0.0974     3.5533     3.5533     0.0000
 17 C      5.9182     6.0000     0.0818     3.6456     3.6456     0.0000
 18 C      6.3208     6.0000    -0.3208     3.7214     3.7214    -0.0000
 19 C      6.0173     6.0000    -0.0173     3.6641     3.6641    -0.0000
 20 O      8.5084     8.0000    -0.5084     1.7878     1.7878     0.0000
 21 H      0.8285     1.0000     0.1715     0.9304     0.9304    -0.0000
 22 H      0.8291     1.0000     0.1709     0.9238     0.9238     0.0000
 23 O      8.5957     8.0000    -0.5957     1.7541     1.7541     0.0000
 24 H      0.8397     1.0000     0.1603     0.9360     0.9360    -0.0000
 25 H      0.8701     1.0000     0.1299     0.9418     0.9418    -0.0000
 26 H      0.8605     1.0000     0.1395     0.9245     0.9245    -0.0000
 27 H      0.8472     1.0000     0.1528     0.9269     0.9269    -0.0000
 28 H      0.6455     1.0000     0.3545     0.8380     0.8380     0.0000

  Mayer bond orders larger than 0.100000
B(  0-C ,  1-C ) :   0.9219 B(  0-C ,  4-O ) :   0.8973 B(  0-C ,  5-H ) :   0.9351 
B(  0-C , 15-O ) :   0.9007 B(  1-C ,  2-C ) :   0.9537 B(  1-C ,  6-H ) :   0.9354 
B(  1-C ,  7-H ) :   0.9200 B(  2-C ,  3-C ) :   0.9457 B(  2-C ,  8-H ) :   0.9451 
B(  2-C ,  9-H ) :   0.9371 B(  3-C ,  4-O ) :   0.8547 B(  3-C , 10-H ) :   0.9344 
B(  3-C , 11-H ) :   0.9388 B( 12-C , 13-H ) :   0.9172 B( 12-C , 14-H ) :   0.9061 
B( 12-C , 15-O ) :   0.8494 B( 12-C , 16-C ) :   0.8990 B( 16-C , 17-C ) :   0.8698 
B( 16-C , 20-O ) :   0.8645 B( 16-C , 21-H ) :   0.9277 B( 17-C , 18-C ) :   0.9206 
B( 17-C , 22-H ) :   0.9318 B( 17-C , 23-O ) :   0.9016 B( 18-C , 19-C ) :   0.9393 
B( 18-C , 24-H ) :   0.9417 B( 18-C , 25-H ) :   0.9411 B( 19-C , 20-O ) :   0.8502 
B( 19-C , 26-H ) :   0.9264 B( 19-C , 27-H ) :   0.9387 B( 23-O , 28-H ) :   0.7988 


-------
TIMINGS
-------

Total SCF time: 0 days 0 hours 2 min 56 sec 

Total time                  ....     176.761 sec
Sum of individual times     ....     136.757 sec  ( 77.4%)

Fock matrix formation       ....     115.436 sec  ( 65.3%)
  XC integration            ....      38.371 sec  ( 33.2% of F)
    Basis function eval.    ....       1.544 sec  (  4.0% of XC)
    Density eval.           ....       1.124 sec  (  2.9% of XC)
    XC-Functional eval.     ....       1.131 sec  (  2.9% of XC)
    XC-Potential eval.      ....       0.690 sec  (  1.8% of XC)
Diagonalization             ....       0.575 sec  (  0.3%)
Density matrix formation    ....       0.006 sec  (  0.0%)
Population analysis         ....       1.293 sec  (  0.7%)
Initial guess               ....       0.146 sec  (  0.1%)
Orbital Transformation      ....       0.000 sec  (  0.0%)
Orbital Orthonormalization  ....       0.004 sec  (  0.0%)
DIIS solution               ....       0.001 sec  (  0.0%)
SOSCF solution              ....       0.420 sec  (  0.2%)
Grid generation             ....      18.879 sec  ( 10.7%)

-------------------------   --------------------
FINAL SINGLE POINT ENERGY      -652.848350672790
-------------------------   --------------------

                                *** OPTIMIZATION RUN DONE ***

                            ***************************************
                            *     ORCA property calculations      *
                            ***************************************

                                    ---------------------
                                    Active property flags
                                    ---------------------
   (+) Dipole Moment


------------------------------------------------------------------------------
                       ORCA ELECTRIC PROPERTIES CALCULATION
------------------------------------------------------------------------------

Dipole Moment Calculation                       ... on
Quadrupole Moment Calculation                   ... off
Polarizability Calculation                      ... off
GBWName                                         ... project_8053/ensemble_90_120.gbw
Electron density file                           ... project_8053/ensemble_90_120.scfp
The origin for moment calculation is the CENTER OF MASS  = (-42.197447, 53.342979 87.618908)

-------------
DIPOLE MOMENT
-------------
                                X             Y             Z
Electronic contribution:     -4.63731      -5.02792      -0.68471
Nuclear contribution   :      5.69140       6.80271       0.85775
                        -----------------------------------------
Total Dipole Moment    :      1.05409       1.77479       0.17304
                        -----------------------------------------
Magnitude (a.u.)       :      2.07145
Magnitude (Debye)      :      5.26522



--------------------
Rotational spectrum 
--------------------
 
Rotational constants in cm-1:     0.047525     0.015046     0.014318 
Rotational constants in MHz :  1424.761098   451.073499   429.252430 

 Dipole components along the rotational axes: 
x,y,z [a.u.] :    -0.306115     1.024577    -1.774107 
x,y,z [Debye]:    -0.778082     2.604267    -4.509420 

 

Timings for individual modules:

Sum of individual times         ...     4526.920 sec (=  75.449 min)
GTO integral calculation        ...      114.688 sec (=   1.911 min)   2.5 %
SCF iterations                  ...     3937.722 sec (=  65.629 min)  87.0 %
SCF Gradient evaluation         ...      350.282 sec (=   5.838 min)   7.7 %
Geometry relaxation             ...      124.228 sec (=   2.070 min)   2.7 %
                             ****ORCA TERMINATED NORMALLY****
TOTAL RUN TIME: 0 days 1 hours 17 minutes 46 seconds 999 msec
