
                                 *****************
                                 * O   R   C   A *
                                 *****************

           --- An Ab Initio, DFT and Semiempirical electronic structure package ---

                  #######################################################
                  #                        -***-                        #
                  #          Department of theory and spectroscopy      #
                  #               Directorship: Frank Neese             #
                  #        Max Planck Institute fuer Kohlenforschung    #
                  #                Kaiser Wilhelm Platz 1               #
                  #                 D-45470 Muelheim/Ruhr               #
                  #                      Germany                        #
                  #                                                     #
                  #                  All rights reserved                #
                  #                        -***-                        #
                  #######################################################


                         Program Version 4.2.0 -  RELEASE  -


 With contributions from (in alphabetic order):
   Daniel Aravena         : Magnetic Suceptibility
   Michael Atanasov       : Ab Initio Ligand Field Theory (pilot matlab implementation)
   Alexander A. Auer      : GIAO ZORA, VPT2
   Ute Becker             : Parallelization
   Giovanni Bistoni       : ED, misc. LED, open-shell LED, HFLED
   Martin Brehm           : Molecular dynamics
   Dmytro Bykov           : SCF Hessian
   Vijay G. Chilkuri      : MRCI spin determinant printing, contributions to CSF-ICE
   Dipayan Datta          : RHF DLPNO-CCSD density
   Achintya Kumar Dutta   : EOM-CC, STEOM-CC
   Dmitry Ganyushin       : Spin-Orbit,Spin-Spin,Magnetic field MRCI
   Miquel Garcia          : C-PCM Hessian, Gaussian charge scheme
   Yang Guo               : DLPNO-NEVPT2, CIM, IAO-localization
   Andreas Hansen         : Spin unrestricted coupled pair/coupled cluster methods
   Benjamin Helmich-Paris : CASSCF linear response (MC-RPA)
   Lee Huntington         : MR-EOM, pCC
   Robert Izsak           : Overlap fitted RIJCOSX, COSX-SCS-MP3, EOM
   Christian Kollmar      : KDIIS, OOCD, Brueckner-CCSD(T), CCSD density
   Simone Kossmann        : Meta GGA functionals, TD-DFT gradient, OOMP2, MP2 Hessian
   Martin Krupicka        : AUTO-CI
   Lucas Lang             : DCDCAS
   Dagmar Lenk            : GEPOL surface, SMD
   Dimitrios Liakos       : Extrapolation schemes; Compound Job, initial MDCI parallelization
   Dimitrios Manganas     : Further ROCIS development; embedding schemes
   Dimitrios Pantazis     : SARC Basis sets
   Taras Petrenko         : DFT Hessian,TD-DFT gradient, ASA, ECA, R-Raman, ABS, FL, XAS/XES, NRVS
   Peter Pinski           : DLPNO-MP2, DLPNO-MP2 Gradient
   Christoph Reimann      : Effective Core Potentials
   Marius Retegan         : Local ZFS, SOC
   Christoph Riplinger    : Optimizer, TS searches, QM/MM, DLPNO-CCSD(T), (RO)-DLPNO pert. Triples
   Tobias Risthaus        : Range-separated hybrids, TD-DFT gradient, RPA, STAB
   Michael Roemelt        : Original ROCIS implementation
   Masaaki Saitow         : Open-shell DLPNO-CCSD energy and density
   Barbara Sandhoefer     : DKH picture change effects
   Avijit Sen             : IP-ROCIS
   Kantharuban Sivalingam : CASSCF convergence, NEVPT2, FIC-MRCI
   Bernardo de Souza      : ESD, SOC TD-DFT
   Georgi Stoychev        : AutoAux, RI-MP2 NMR
   Willem Van den Heuvel  : Paramagnetic NMR
   Boris Wezisla          : Elementary symmetry handling
   Frank Wennmohs         : Technical directorship


 We gratefully acknowledge several colleagues who have allowed us to
 interface, adapt or use parts of their codes:
   Stefan Grimme, W. Hujo, H. Kruse,             : VdW corrections, initial TS optimization,
                  C. Bannwarth                     DFT functionals, gCP, sTDA/sTD-DF
   Ed Valeev, F. Pavosevic, A. Kumar             : LibInt (2-el integral package), F12 methods
   Garnet Chan, S. Sharma, J. Yang, R. Olivares  : DMRG
   Ulf Ekstrom                                   : XCFun DFT Library
   Mihaly Kallay                                 : mrcc  (arbitrary order and MRCC methods)
   Andreas Klamt, Michael Diedenhofen            : otool_cosmo (COSMO solvation model)
   Jiri Pittner, Ondrej Demel                    : Mk-CCSD
   Frank Weinhold                                : gennbo (NPA and NBO analysis)
   Christopher J. Cramer and Donald G. Truhlar   : smd solvation model
   Lars Goerigk                                  : TD-DFT with DH, B97 family of functionals
   V. Asgeirsson, H. Jonsson                     : NEB implementation
   FAccTs GmbH                                   : IRC, NEB, NEB-TS, Multilevel, MM, QM/MM, CI optimization
   S Lehtola, MJT Oliveira, MAL Marques          : LibXC Library


 Your calculation uses the libint2 library for the computation of 2-el integrals
 For citations please refer to: http://libint.valeyev.net

 Your ORCA version has been built with support for libXC version: 4.2.3
 For citations please refer to: https://tddft.org/programs/libxc/

 This ORCA versions uses:
   CBLAS   interface :  Fast vector & matrix operations
   LAPACKE interface :  Fast linear algebra routines
   SCALAPACK package :  Parallel linear algebra routines


----- Orbital basis set information -----
Your calculation utilizes the basis: 6-31G
   H-He, Li-Ne : W. J. Hehre, R. Ditchfield and J.A. Pople, J. Chem. Phys. 56, 2257 (1972).
                 Note: He and Ne are unpublished basis sets taken from the Gaussian program.
                 Note: Li and B from J. D. Dill and J. A. Pople, J. Chem. Phys. 62, 2921 (1975).
   Na - Ar     : M. M. Francl, W. J. Pietro, W. J. Hehre, J. S. Binkley, M. S. Gordon, 
                 D. J. DeFrees and J. A. Pople, J. Chem. Phys. 77, 3654 (1982).
   K - Zn      : V. A. Rassolov, J. A. Pople, M. A. Ratner, and T. L. Windus, J. Chem. Phys. 109, 1223 (1998).

================================================================================
                                        WARNINGS
                       Please study these warnings very carefully!
================================================================================


WARNING: Geometry Optimization
  ===> : Switching off AutoStart
         For restart on a previous wavefunction, please use MOREAD

INFO   : the flag for use of LIBINT has been found!

================================================================================
                                       INPUT FILE
================================================================================
NAME = project_8049/ensemble_315_240.inp
|  1> # Test redundant internal optimization
|  2> #
|  3> ! RKS B3LYP  Opt TightSCF SmallPrint
|  4> 
|  5> %basis
|  6>         Basis "6-31G"
|  7> end
|  8> 
|  9> %geom
| 10> Constraints
| 11> { D 4  0  15  12  315.0   C } # D for Dihedral angle
| 12> { D 0  15  12  16  240.0   C } # D for Dihedral angle
| 13> { D 0  4  3  2   C } # D for Dihedral angle
| 14> { D 4  3  2  1   C } # D for Dihedral angle
| 15> { D 3  2  1  0   C } # D for Dihedral angle
| 16> { D 2  1  0  4   C } # D for Dihedral angle
| 17> { D 1  0  4  3   C } # D for Dihedral angle
| 18> { D 16  20  19  18   C } # D for Dihedral angle
| 19> { D 20  19  18  17   C } # D for Dihedral angle
| 20> { D 19  18  17  16   C } # D for Dihedral angle
| 21> { D 18  17  16  20   C } # D for Dihedral angle
| 22> { D 17  16  20  19   C } # D for Dihedral angle
| 23> { D 15  12  16  20   C } # D for Dihedral angle
| 24> end
| 25> end
| 26> 
| 27> 
| 28> #%pal 
| 29> #nprocs 8
| 30> #end
| 31> 
| 32> * xyz 0 1
| 33> C  -21.048   26.222   46.251
| 34> C  -20.361   27.558   45.944
| 35> C  -20.329   28.222   47.341
| 36> C  -20.110   27.022   48.296
| 37> O  -20.473   25.807   47.535
| 38> H  -20.833   25.428   45.533
| 39> H  -19.344   27.382   45.576
| 40> H  -20.898   28.157   45.201
| 41> H  -19.543   28.978   47.434
| 42> H  -21.289   28.710   47.548
| 43> H  -20.733   27.082   49.195
| 44> H  -19.064   26.913   48.597
| 45> C  -23.319   25.255   47.135
| 46> H  -22.584   24.510   47.466
| 47> H  -23.829   25.651   48.022
| 48> O  -22.586   26.394   46.375
| 49> C  -24.382   24.536   46.259
| 50> C  -25.396   25.532   45.684
| 51> C  -24.604   26.135   44.499
| 52> C  -23.769   24.935   43.986
| 53> O  -23.753   23.937   45.078
| 54> H  -24.826   23.721   46.833
| 55> H  -26.283   25.000   45.325
| 56> O  -25.850   26.604   46.712
| 57> H  -25.253   26.554   43.723
| 58> H  -23.947   26.938   44.855
| 59> H  -22.739   25.214   43.740
| 60> H  -24.223   24.453   43.116
| 61> H  -24.976   27.149   47.086
| 62> *
| 63> 
| 64>                          ****END OF INPUT****
================================================================================

                       *****************************
                       * Geometry Optimization Run *
                       *****************************

Geometry optimization settings:
Update method            Update   .... BFGS
Choice of coordinates    CoordSys .... Z-matrix Internals
Initial Hessian          InHess   .... Almoef's Model

Convergence Tolerances:
Energy Change            TolE     ....  5.0000e-06 Eh
Max. Gradient            TolMAXG  ....  3.0000e-04 Eh/bohr
RMS Gradient             TolRMSG  ....  1.0000e-04 Eh/bohr
Max. Displacement        TolMAXD  ....  4.0000e-03 bohr
RMS Displacement         TolRMSD  ....  2.0000e-03 bohr
Strict Convergence                ....  False
------------------------------------------------------------------------------
                        ORCA OPTIMIZATION COORDINATE SETUP
------------------------------------------------------------------------------

The optimization will be done in new redundant internal coordinates
Making redundant internal coordinates   ...  (new redundants) done
Evaluating the initial hessian          ...  (Almloef) done
Evaluating the coordinates              ...  done
Calculating the B-matrix                .... done
Calculating the G-matrix                .... done
Diagonalizing the G-matrix              .... done
Imposing constraints:
 Iter   0:  RMS(Cart)=    0.0001915371 RMS(Int)=    0.0000587265
 Iter   1:  RMS(Cart)=    0.0000959080 RMS(Int)=    0.0000318518
 Iter   2:  RMS(Cart)=    0.0000502427 RMS(Int)=    0.0000190058
 Iter   3:  RMS(Cart)=    0.0000277880 RMS(Int)=    0.0000123736
 Iter   4:  RMS(Cart)=    0.0000162824 RMS(Int)=    0.0000086326
 Iter   5:  RMS(Cart)=    0.0000100753 RMS(Int)=    0.0000063865
 Iter   6:  RMS(Cart)=    0.0000065363 RMS(Int)=    0.0000050061
 Iter   7:  RMS(Cart)=    0.0000044136 RMS(Int)=    0.0000041601
 Iter   8:  RMS(Cart)=    0.0000030881 RMS(Int)=    0.0000036442
 Iter   9:  RMS(Cart)=    0.0000022365 RMS(Int)=    0.0000033247
 Iter  10:  RMS(Cart)=    0.0000016799 RMS(Int)=    0.0000031167
 Iter  11:  RMS(Cart)=    0.0000013126 RMS(Int)=    0.0000029701
 Iter  12:  RMS(Cart)=    0.0000010688 RMS(Int)=    0.0000028569
 Iter  13:  RMS(Cart)=    0.0000009060 RMS(Int)=    0.0000027620
 Iter  14:  RMS(Cart)=    0.0000007956 RMS(Int)=    0.0000026776
 Iter  15:  RMS(Cart)=    0.0000007189 RMS(Int)=    0.0000025997
 Iter  16:  RMS(Cart)=    0.0000006638 RMS(Int)=    0.0000025262
 Iter  17:  RMS(Cart)=    0.0000006224 RMS(Int)=    0.0000024559
 Iter  18:  RMS(Cart)=    0.0000005901 RMS(Int)=    0.0000023883
 Iter  19:  RMS(Cart)=    0.0000005636 RMS(Int)=    0.0000023230
 Iter  20:  RMS(Cart)=    0.0000005411 RMS(Int)=    0.0000022599
 Iter  21:  RMS(Cart)=    0.0000005214 RMS(Int)=    0.0000021987
 Iter  22:  RMS(Cart)=    0.0000005037 RMS(Int)=    0.0000021394
 Iter  23:  RMS(Cart)=    0.0000004874 RMS(Int)=    0.0000020820
 Iter  24:  RMS(Cart)=    0.0000004723 RMS(Int)=    0.0000020263
 Iter  25:  RMS(Cart)=    0.0000004580 RMS(Int)=    0.0000019723
 Iter  26:  RMS(Cart)=    0.0000004445 RMS(Int)=    0.0000019199
 Iter  27:  RMS(Cart)=    0.0000004316 RMS(Int)=    0.0000018691
 Iter  28:  RMS(Cart)=    0.0000004193 RMS(Int)=    0.0000018198
 Iter  29:  RMS(Cart)=    0.0000004074 RMS(Int)=    0.0000017720
 Iter  30:  RMS(Cart)=    0.0000003959 RMS(Int)=    0.0000017256
 Iter  31:  RMS(Cart)=    0.0000003848 RMS(Int)=    0.0000016806
 Iter  32:  RMS(Cart)=    0.0000003741 RMS(Int)=    0.0000016370
 Iter  33:  RMS(Cart)=    0.0000003638 RMS(Int)=    0.0000015946
 Iter  34:  RMS(Cart)=    0.0000003537 RMS(Int)=    0.0000015535
 Iter  35:  RMS(Cart)=    0.0000003440 RMS(Int)=    0.0000015136
 Iter  36:  RMS(Cart)=    0.0000003346 RMS(Int)=    0.0000014748
 Iter  37:  RMS(Cart)=    0.0000003254 RMS(Int)=    0.0000014372
 Iter  38:  RMS(Cart)=    0.0000003166 RMS(Int)=    0.0000014007
 Iter  39:  RMS(Cart)=    0.0000003080 RMS(Int)=    0.0000013652
 Iter  40:  RMS(Cart)=    0.0000002996 RMS(Int)=    0.0000013308
 Iter  41:  RMS(Cart)=    0.0000002915 RMS(Int)=    0.0000012974
 Iter  42:  RMS(Cart)=    0.0000002836 RMS(Int)=    0.0000012649
 Iter  43:  RMS(Cart)=    0.0000002760 RMS(Int)=    0.0000012334
 Iter  44:  RMS(Cart)=    0.0000002686 RMS(Int)=    0.0000012028
 Iter  45:  RMS(Cart)=    0.0000002614 RMS(Int)=    0.0000011731
 Iter  46:  RMS(Cart)=    0.0000002544 RMS(Int)=    0.0000011442
 Iter  47:  RMS(Cart)=    0.0000002476 RMS(Int)=    0.0000011161
 Iter  48:  RMS(Cart)=    0.0000002411 RMS(Int)=    0.0000010888
 Iter  49:  RMS(Cart)=    0.0000002347 RMS(Int)=    0.0000010623
 Iter  50:  RMS(Cart)=    0.0000002285 RMS(Int)=    0.0000010366
 Iter  51:  RMS(Cart)=    0.0000002224 RMS(Int)=    0.0000010116
 Iter  52:  RMS(Cart)=    0.0000002166 RMS(Int)=    0.0000009872
 Iter  53:  RMS(Cart)=    0.0000002109 RMS(Int)=    0.0000009636
 Iter  54:  RMS(Cart)=    0.0000002053 RMS(Int)=    0.0000009406
 Iter  55:  RMS(Cart)=    0.0000002000 RMS(Int)=    0.0000009183
 Iter  56:  RMS(Cart)=    0.0000001948 RMS(Int)=    0.0000008966
 Iter  57:  RMS(Cart)=    0.0000001897 RMS(Int)=    0.0000008755
 Iter  58:  RMS(Cart)=    0.0000001848 RMS(Int)=    0.0000008549
 Iter  59:  RMS(Cart)=    0.0000001800 RMS(Int)=    0.0000008350
 Iter  60:  RMS(Cart)=    0.0000001753 RMS(Int)=    0.0000008156
 Iter  61:  RMS(Cart)=    0.0000001708 RMS(Int)=    0.0000007967
 Iter  62:  RMS(Cart)=    0.0000001664 RMS(Int)=    0.0000007783
 Iter  63:  RMS(Cart)=    0.0000001622 RMS(Int)=    0.0000007605
 Iter  64:  RMS(Cart)=    0.0000001580 RMS(Int)=    0.0000007431
 Iter  65:  RMS(Cart)=    0.0000001540 RMS(Int)=    0.0000007262
 Iter  66:  RMS(Cart)=    0.0000001501 RMS(Int)=    0.0000007097
 Iter  67:  RMS(Cart)=    0.0000001463 RMS(Int)=    0.0000006937
 Iter  68:  RMS(Cart)=    0.0000001426 RMS(Int)=    0.0000006782
 Iter  69:  RMS(Cart)=    0.0000001389 RMS(Int)=    0.0000006630
 Iter  70:  RMS(Cart)=    0.0000001354 RMS(Int)=    0.0000006483
 Iter  71:  RMS(Cart)=    0.0000001320 RMS(Int)=    0.0000006339
 Iter  72:  RMS(Cart)=    0.0000001287 RMS(Int)=    0.0000006200
 Iter  73:  RMS(Cart)=    0.0000001255 RMS(Int)=    0.0000006064
 Iter  74:  RMS(Cart)=    0.0000001224 RMS(Int)=    0.0000005931
 Iter  75:  RMS(Cart)=    0.0000001193 RMS(Int)=    0.0000005802
 Iter  76:  RMS(Cart)=    0.0000001164 RMS(Int)=    0.0000005677
 Iter  77:  RMS(Cart)=    0.0000001135 RMS(Int)=    0.0000005555
 Iter  78:  RMS(Cart)=    0.0000001107 RMS(Int)=    0.0000005436
 Iter  79:  RMS(Cart)=    0.0000001080 RMS(Int)=    0.0000005320
 Iter  80:  RMS(Cart)=    0.0000001053 RMS(Int)=    0.0000005207
 Iter  81:  RMS(Cart)=    0.0000001027 RMS(Int)=    0.0000005097
 Iter  82:  RMS(Cart)=    0.0000001002 RMS(Int)=    0.0000004990
 Iter  83:  RMS(Cart)=    0.0000000978 RMS(Int)=    0.0000004886
 Iter  84:  RMS(Cart)=    0.0000000954 RMS(Int)=    0.0000004784
 Iter  85:  RMS(Cart)=    0.0000000931 RMS(Int)=    0.0000004685
 Iter  86:  RMS(Cart)=    0.0000000908 RMS(Int)=    0.0000004589
 Iter  87:  RMS(Cart)=    0.0000000886 RMS(Int)=    0.0000004495
 Iter  88:  RMS(Cart)=    0.0000000865 RMS(Int)=    0.0000004403
 Iter  89:  RMS(Cart)=    0.0000000844 RMS(Int)=    0.0000004314
 Iter  90:  RMS(Cart)=    0.0000000824 RMS(Int)=    0.0000004226
 Iter  91:  RMS(Cart)=    0.0000000804 RMS(Int)=    0.0000004142
 Iter  92:  RMS(Cart)=    0.0000000785 RMS(Int)=    0.0000004059
 Iter  93:  RMS(Cart)=    0.0000000766 RMS(Int)=    0.0000003978
 Iter  94:  RMS(Cart)=    0.0000000748 RMS(Int)=    0.0000003899
 Iter  95:  RMS(Cart)=    0.0000000730 RMS(Int)=    0.0000003823
 Iter  96:  RMS(Cart)=    0.0000000713 RMS(Int)=    0.0000003748
 Iter  97:  RMS(Cart)=    0.0000000696 RMS(Int)=    0.0000003675
 Iter  98:  RMS(Cart)=    0.0000000680 RMS(Int)=    0.0000003604
 Iter  99:  RMS(Cart)=    0.0000000664 RMS(Int)=    0.0000003534
 RMS(Cart) too big - taking linear step, building new B-matrix and trying again
Imposing constraints:
 Iter   0:  RMS(Cart)=    0.0000959074 RMS(Int)=    0.0000318516
 Iter   1:  RMS(Cart)=    0.0000502428 RMS(Int)=    0.0000190053
 Iter   2:  RMS(Cart)=    0.0000277881 RMS(Int)=    0.0000123730
 Iter   3:  RMS(Cart)=    0.0000162823 RMS(Int)=    0.0000086319
 Iter   4:  RMS(Cart)=    0.0000100752 RMS(Int)=    0.0000063859
 Iter   5:  RMS(Cart)=    0.0000065362 RMS(Int)=    0.0000050056
 Iter   6:  RMS(Cart)=    0.0000044135 RMS(Int)=    0.0000041596
 Iter   7:  RMS(Cart)=    0.0000030880 RMS(Int)=    0.0000036438
 Iter   8:  RMS(Cart)=    0.0000022365 RMS(Int)=    0.0000033243
 Iter   9:  RMS(Cart)=    0.0000016799 RMS(Int)=    0.0000031163
 Iter  10:  RMS(Cart)=    0.0000013125 RMS(Int)=    0.0000029698
 Iter  11:  RMS(Cart)=    0.0000010688 RMS(Int)=    0.0000028565
 Iter  12:  RMS(Cart)=    0.0000009059 RMS(Int)=    0.0000027616
 Iter  13:  RMS(Cart)=    0.0000007955 RMS(Int)=    0.0000026773
 Iter  14:  RMS(Cart)=    0.0000007189 RMS(Int)=    0.0000025994
 Iter  15:  RMS(Cart)=    0.0000006637 RMS(Int)=    0.0000025259
 Iter  16:  RMS(Cart)=    0.0000006224 RMS(Int)=    0.0000024556
 Iter  17:  RMS(Cart)=    0.0000005900 RMS(Int)=    0.0000023880
 Iter  18:  RMS(Cart)=    0.0000005635 RMS(Int)=    0.0000023228
 Iter  19:  RMS(Cart)=    0.0000005411 RMS(Int)=    0.0000022596
 Iter  20:  RMS(Cart)=    0.0000005213 RMS(Int)=    0.0000021985
 Iter  21:  RMS(Cart)=    0.0000005036 RMS(Int)=    0.0000021392
 Iter  22:  RMS(Cart)=    0.0000004874 RMS(Int)=    0.0000020818
 Iter  23:  RMS(Cart)=    0.0000004722 RMS(Int)=    0.0000020261
 Iter  24:  RMS(Cart)=    0.0000004580 RMS(Int)=    0.0000019721
 Iter  25:  RMS(Cart)=    0.0000004445 RMS(Int)=    0.0000019197
 Iter  26:  RMS(Cart)=    0.0000004316 RMS(Int)=    0.0000018689
 Iter  27:  RMS(Cart)=    0.0000004192 RMS(Int)=    0.0000018197
 Iter  28:  RMS(Cart)=    0.0000004074 RMS(Int)=    0.0000017719
 Iter  29:  RMS(Cart)=    0.0000003959 RMS(Int)=    0.0000017255
 Iter  30:  RMS(Cart)=    0.0000003848 RMS(Int)=    0.0000016805
 Iter  31:  RMS(Cart)=    0.0000003741 RMS(Int)=    0.0000016368
 Iter  32:  RMS(Cart)=    0.0000003638 RMS(Int)=    0.0000015945
 Iter  33:  RMS(Cart)=    0.0000003537 RMS(Int)=    0.0000015534
 Iter  34:  RMS(Cart)=    0.0000003440 RMS(Int)=    0.0000015135
 Iter  35:  RMS(Cart)=    0.0000003346 RMS(Int)=    0.0000014747
 Iter  36:  RMS(Cart)=    0.0000003254 RMS(Int)=    0.0000014371
 Iter  37:  RMS(Cart)=    0.0000003165 RMS(Int)=    0.0000014006
 Iter  38:  RMS(Cart)=    0.0000003079 RMS(Int)=    0.0000013652
 Iter  39:  RMS(Cart)=    0.0000002996 RMS(Int)=    0.0000013308
 Iter  40:  RMS(Cart)=    0.0000002915 RMS(Int)=    0.0000012973
 Iter  41:  RMS(Cart)=    0.0000002836 RMS(Int)=    0.0000012649
 Iter  42:  RMS(Cart)=    0.0000002760 RMS(Int)=    0.0000012334
 Iter  43:  RMS(Cart)=    0.0000002686 RMS(Int)=    0.0000012028
 Iter  44:  RMS(Cart)=    0.0000002614 RMS(Int)=    0.0000011730
 Iter  45:  RMS(Cart)=    0.0000002544 RMS(Int)=    0.0000011441
 Iter  46:  RMS(Cart)=    0.0000002476 RMS(Int)=    0.0000011161
 Iter  47:  RMS(Cart)=    0.0000002410 RMS(Int)=    0.0000010888
 Iter  48:  RMS(Cart)=    0.0000002346 RMS(Int)=    0.0000010623
 Iter  49:  RMS(Cart)=    0.0000002284 RMS(Int)=    0.0000010366
 Iter  50:  RMS(Cart)=    0.0000002224 RMS(Int)=    0.0000010116
 Iter  51:  RMS(Cart)=    0.0000002166 RMS(Int)=    0.0000009872
CONVERGED
Small eigenvalue found = 6.690e-03
Small eigenvalue found = 1.336e-02
Small eigenvalue found = 1.556e-02
The first mode is                       ....   91
The number of degrees of freedom        ....   81
Storing new coordinates                 .... done

    -----------------------------------------------------------------
                    Redundant Internal Coordinates


    -----------------------------------------------------------------
         Definition                    Initial Value    Approx d2E/dq
    -----------------------------------------------------------------
      1. B(C   1,C   0)                  1.5333         0.369027   
      2. B(C   2,C   1)                  1.5471         0.350825   
      3. B(C   3,C   2)                  1.5492         0.348147   
      4. B(O   4,C   0)                  1.4668         0.422031   
      5. B(O   4,C   3)                  1.4789         0.403699   
      6. B(H   5,C   0)                  1.0919         0.357632   
      7. B(H   6,C   1)                  1.0958         0.352561   
      8. B(H   7,C   1)                  1.0951         0.353431   
      9. B(H   8,C   2)                  1.0945         0.354166   
     10. B(H   9,C   2)                  1.0966         0.351438   
     11. B(H  10,C   3)                  1.0954         0.353010   
     12. B(H  11,C   3)                  1.0939         0.354989   
     13. B(H  13,C  12)                  1.0976         0.350135   
     14. B(H  14,C  12)                  1.0971         0.350796   
     15. B(O  15,C   0)                  1.5525         0.307993   
     16. B(O  15,C  12)                  1.5531         0.307336   
     17. B(C  16,C  12)                  1.5538         0.342295   
     18. B(C  17,C  16)                  1.5332         0.369149   
     19. B(C  18,C  17)                  1.5476         0.350172   
     20. B(C  19,C  18)                  1.5493         0.347979   
     21. B(O  20,C  16)                  1.4660         0.423250   
     22. B(O  20,C  19)                  1.4794         0.402893   
     23. B(H  21,C  16)                  1.0913         0.358444   
     24. B(H  22,C  17)                  1.0948         0.353754   
     25. B(O  23,C  17)                  1.5531         0.307382   
     26. B(H  24,C  18)                  1.0950         0.353598   
     27. B(H  25,C  18)                  1.0969         0.351084   
     28. B(H  26,C  19)                  1.0951         0.353408   
     29. B(H  27,C  19)                  1.0933         0.355740   
     30. B(H  28,O  23)                  1.0958         0.315724   
     31. A(O   4,C   0,H   5)          107.0216         0.328541   
     32. A(C   1,C   0,O  15)          111.3019         0.348740   
     33. A(C   1,C   0,O   4)          104.2485         0.367935   
     34. A(O   4,C   0,O  15)          110.4735         0.354548   
     35. A(C   1,C   0,H   5)          114.4376         0.323302   
     36. A(H   5,C   0,O  15)          109.1578         0.312058   
     37. A(C   0,C   1,C   2)          101.6796         0.358729   
     38. A(C   2,C   1,H   7)          112.8319         0.320016   
     39. A(C   2,C   1,H   6)          110.6709         0.319888   
     40. A(C   0,C   1,H   6)          110.0676         0.322546   
     41. A(H   6,C   1,H   7)          108.3681         0.289027   
     42. A(C   0,C   1,H   7)          113.1243         0.322677   
     43. A(C   1,C   2,H   8)          112.8318         0.320125   
     44. A(C   1,C   2,C   3)          103.1267         0.355196   
     45. A(C   1,C   2,H   9)          110.0800         0.319721   
     46. A(C   3,C   2,H   9)          110.6152         0.319321   
     47. A(C   3,C   2,H   8)          112.4039         0.319725   
     48. A(H   8,C   2,H   9)          107.7728         0.288977   
     49. A(O   4,C   3,H  10)          109.1298         0.325449   
     50. A(C   2,C   3,H  10)          112.5253         0.319554   
     51. A(C   2,C   3,O   4)          106.5276         0.361529   
     52. A(O   4,C   3,H  11)          107.1237         0.325748   
     53. A(H  10,C   3,H  11)          108.8728         0.289284   
     54. A(C   2,C   3,H  11)          112.4566         0.319846   
     55. A(C   0,O   4,C   3)          108.3147         0.371320   
     56. A(H  14,C  12,C  16)          107.7368         0.318344   
     57. A(H  13,C  12,H  14)          108.2073         0.288377   
     58. A(H  13,C  12,O  15)          109.2233         0.310883   
     59. A(H  14,C  12,O  15)          110.5080         0.310978   
     60. A(O  15,C  12,C  16)          112.7274         0.344234   
     61. A(H  13,C  12,C  16)          108.3128         0.318246   
     62. A(C   0,O  15,C  12)          115.1738         0.336155   
     63. A(C  12,C  16,C  17)          111.3007         0.357250   
     64. A(C  12,C  16,O  20)          110.4699         0.363407   
     65. A(C  17,C  16,O  20)          104.3030         0.368138   
     66. A(C  12,C  16,H  21)          109.1117         0.319467   
     67. A(C  17,C  16,H  21)          114.4140         0.323440   
     68. A(O  20,C  16,H  21)          107.0478         0.328821   
     69. A(C  16,C  17,C  18)          101.6434         0.358635   
     70. A(C  16,C  17,H  22)          110.0666         0.322742   
     71. A(C  18,C  17,H  22)          110.6626         0.319967   
     72. A(C  16,C  17,O  23)          113.1708         0.348643   
     73. A(C  18,C  17,O  23)          112.7973         0.345560   
     74. A(H  22,C  17,O  23)          108.3977         0.311408   
     75. A(C  17,C  18,C  19)          103.1529         0.355055   
     76. A(C  17,C  18,H  24)          112.8565         0.319944   
     77. A(C  19,C  18,H  24)          112.4061         0.319616   
     78. A(C  17,C  18,H  25)          110.0751         0.319571   
     79. A(C  19,C  18,H  25)          110.5891         0.319244   
     80. A(H  24,C  18,H  25)          107.7514         0.288858   
     81. A(C  18,C  19,O  20)          106.4941         0.361376   
     82. A(C  18,C  19,H  26)          112.5790         0.319588   
     83. A(O  20,C  19,H  26)          109.1170         0.325402   
     84. A(C  18,C  19,H  27)          112.4045         0.319931   
     85. A(O  20,C  19,H  27)          107.1244         0.325754   
     86. A(H  26,C  19,H  27)          108.9128         0.289431   
     87. A(C  16,O  20,C  19)          108.3221         0.371377   
     88. A(C  17,O  23,H  28)          109.6364         0.303230   
     89. D(H   7,C   1,C   0,H   5)     82.1517         0.010890   
     90. D(C   2,C   1,C   0,O  15)     79.0868         0.010890   
     91. D(H   7,C   1,C   0,O  15)    -42.1868         0.010890   
     92. D(H   6,C   1,C   0,O   4)     77.3260         0.010890   
     93. D(H   6,C   1,C   0,O  15)   -163.5727         0.010890   
     94. D(H   6,C   1,C   0,H   5)    -39.2342         0.010890   
     95. D(H   7,C   1,C   0,O   4)   -161.2882         0.010890   
     96. D(C   2,C   1,C   0,O   4)    -40.0145         0.010890 C 
     97. D(C   2,C   1,C   0,H   5)   -156.5747         0.010890   
     98. D(H   9,C   2,C   1,H   6)    160.0776         0.009912   
     99. D(H   8,C   2,C   1,C   0)    156.5478         0.009912   
    100. D(H   8,C   2,C   1,H   6)     39.6446         0.009912   
    101. D(C   3,C   2,C   1,C   0)     35.0270         0.009912 C 
    102. D(H   8,C   2,C   1,H   7)    -81.9752         0.009912   
    103. D(H   9,C   2,C   1,C   0)    -83.0191         0.009912   
    104. D(C   3,C   2,C   1,H   6)    -81.8763         0.009912   
    105. D(H   9,C   2,C   1,H   7)     38.4578         0.009912   
    106. D(C   3,C   2,C   1,H   7)    156.5039         0.009912   
    107. D(H  11,C   3,C   2,H   9)   -143.4628         0.009774   
    108. D(O   4,C   3,C   2,H   8)   -140.0066         0.009774   
    109. D(O   4,C   3,C   2,H   9)     99.4739         0.009774   
    110. D(H  10,C   3,C   2,C   1)   -137.7433         0.009774   
    111. D(H  10,C   3,C   2,H   8)    100.4468         0.009774   
    112. D(H  10,C   3,C   2,H   9)    -20.0727         0.009774   
    113. D(H  11,C   3,C   2,C   1)     98.8667         0.009774   
    114. D(O   4,C   3,C   2,C   1)    -18.1967         0.009774 C 
    115. D(H  11,C   3,C   2,H   8)    -22.9433         0.009774   
    116. D(C   3,O   4,C   0,C   1)     29.5918         0.014035 C 
    117. D(C   3,O   4,C   0,H   5)    151.2014         0.014035   
    118. D(C   3,O   4,C   0,O  15)    -90.0710         0.014035   
    119. D(C   0,O   4,C   3,C   2)     -6.8732         0.012866 C 
    120. D(C   0,O   4,C   3,H  10)    114.8547         0.012866   
    121. D(C   0,O   4,C   3,H  11)   -127.4272         0.012866   
    122. D(C   0,O  15,C  12,C  16)   -120.0000         0.007764 C 
    123. D(C  12,O  15,C   0,O   4)    -45.0000         0.007793 C 
    124. D(C  12,O  15,C   0,H   5)     72.4192         0.007793   
    125. D(C   0,O  15,C  12,H  14)    119.3817         0.007764   
    126. D(C   0,O  15,C  12,H  13)      0.4528         0.007764   
    127. D(C  12,O  15,C   0,C   1)   -160.3134         0.007793   
    128. D(C  17,C  16,C  12,H  13)   -176.3591         0.009475   
    129. D(H  21,C  16,C  12,H  14)    -60.3943         0.009475   
    130. D(C  17,C  16,C  12,O  15)    -55.3855         0.009475   
    131. D(O  20,C  16,C  12,H  13)    -60.9816         0.009475   
    132. D(O  20,C  16,C  12,H  14)   -177.8157         0.009475   
    133. D(O  20,C  16,C  12,O  15)     59.9920         0.009475 C 
    134. D(C  17,C  16,C  12,H  14)     66.8068         0.009475   
    135. D(H  21,C  16,C  12,H  13)     56.4398         0.009475   
    136. D(H  21,C  16,C  12,O  15)    177.4134         0.009475   
    137. D(C  18,C  17,C  16,C  12)     79.1325         0.010897   
    138. D(C  18,C  17,C  16,O  20)    -39.9961         0.010897 C 
    139. D(C  18,C  17,C  16,H  21)   -156.6106         0.010897   
    140. D(H  22,C  17,C  16,C  12)   -163.5557         0.010897   
    141. D(H  22,C  17,C  16,O  20)     77.3158         0.010897   
    142. D(H  22,C  17,C  16,H  21)    -39.2987         0.010897   
    143. D(O  23,C  17,C  16,C  12)    -42.1004         0.010897   
    144. D(O  23,C  17,C  16,O  20)   -161.2289         0.010897   
    145. D(O  23,C  17,C  16,H  21)     82.1566         0.010897   
    146. D(H  24,C  18,C  17,O  23)    -81.9609         0.009879   
    147. D(C  19,C  18,C  17,H  22)    -81.8865         0.009879   
    148. D(C  19,C  18,C  17,O  23)    156.4857         0.009879   
    149. D(H  24,C  18,C  17,C  16)    156.5463         0.009879   
    150. D(C  19,C  18,C  17,C  16)     34.9929         0.009879 C 
    151. D(H  24,C  18,C  17,H  22)     39.6669         0.009879   
    152. D(H  25,C  18,C  17,C  16)    -83.0348         0.009879   
    153. D(H  25,C  18,C  17,H  22)    160.0858         0.009879   
    154. D(H  25,C  18,C  17,O  23)     38.4580         0.009879   
    155. D(H  27,C  19,C  18,H  25)   -143.4968         0.009765   
    156. D(O  20,C  19,C  18,H  24)   -140.0368         0.009765   
    157. D(O  20,C  19,C  18,H  25)     99.4878         0.009765   
    158. D(H  26,C  19,C  18,C  17)   -137.7196         0.009765   
    159. D(H  26,C  19,C  18,H  24)    100.4230         0.009765   
    160. D(H  26,C  19,C  18,H  25)    -20.0525         0.009765   
    161. D(H  27,C  19,C  18,C  17)     98.8360         0.009765   
    162. D(O  20,C  19,C  18,C  17)    -18.1794         0.009765 C 
    163. D(H  27,C  19,C  18,H  24)    -23.0214         0.009765   
    164. D(C  19,O  20,C  16,C  12)    -90.0921         0.014115   
    165. D(C  19,O  20,C  16,C  17)     29.5988         0.014115 C 
    166. D(C  19,O  20,C  16,H  21)    151.2221         0.014115   
    167. D(C  16,O  20,C  19,C  18)     -6.8784         0.012816 C 
    168. D(C  16,O  20,C  19,H  26)    114.8868         0.012816   
    169. D(C  16,O  20,C  19,H  27)   -127.3541         0.012816   
    170. D(H  28,O  23,C  17,C  16)     57.5479         0.007766   
    171. D(H  28,O  23,C  17,C  18)    -57.1617         0.007766   
    172. D(H  28,O  23,C  17,H  22)    179.9378         0.007766   
    -----------------------------------------------------------------

Number of atoms                         .... 29
Number of degrees of freedom            .... 172

Time needed for optimization step       :     6.64 sec

         *************************************************************
         *                GEOMETRY OPTIMIZATION CYCLE   1            *
         *************************************************************
---------------------------------
CARTESIAN COORDINATES (ANGSTROEM)
---------------------------------
  C    -21.047769   26.221792   46.251138
  C    -20.360872   27.557820   45.943996
  C    -20.329173   28.222103   47.340874
  C    -20.110184   27.022307   48.296131
  O    -20.472919   25.807125   47.535309
  H    -20.832559   25.427700   45.533302
  H    -19.343795   27.381867   45.576188
  H    -20.897826   28.156618   45.200800
  H    -19.543277   28.978214   47.433854
  H    -21.289262   28.710032   47.547628
  H    -20.733333   27.082403   49.195021
  H    -19.064219   26.913487   48.597315
  C    -23.318842   25.254685   47.134834
  H    -22.583834   24.509683   47.465813
  H    -23.828858   25.650643   48.021844
  O    -22.585803   26.393680   46.374864
  C    -24.382033   24.535905   46.258887
  C    -25.395961   25.532110   45.684103
  C    -24.604013   26.135137   44.499079
  C    -23.769239   24.935075   43.985858
  O    -23.753254   23.936957   45.077745
  H    -24.826092   23.720913   46.832853
  H    -26.283075   25.000271   45.325147
  O    -25.849694   26.604064   46.712270
  H    -25.253042   26.554311   43.723198
  H    -23.946862   26.938008   44.855092
  H    -22.739228   25.213957   43.739772
  H    -24.223405   24.453232   43.115858
  H    -24.975576   27.148902   47.086228

----------------------------
CARTESIAN COORDINATES (A.U.)
----------------------------
  NO LB      ZA    FRAG     MASS         X           Y           Z
   0 C     6.0000    0    12.011  -39.774519   49.552006   87.401984
   1 C     6.0000    0    12.011  -38.476473   52.076733   86.821570
   2 C     6.0000    0    12.011  -38.416569   53.332046   89.461287
   3 C     6.0000    0    12.011  -38.002741   51.064760   91.266460
   4 O     8.0000    0    15.999  -38.688210   48.768398   89.828716
   5 H     1.0000    0     1.008  -39.367832   48.051390   86.045471
   6 H     1.0000    0     1.008  -36.554475   51.744229   86.126514
   7 H     1.0000    0     1.008  -39.491169   53.208296   85.417132
   8 H     1.0000    0     1.008  -36.931441   54.760888   89.636993
   9 H     1.0000    0     1.008  -40.230875   54.254097   89.851995
  10 H     1.0000    0     1.008  -39.180321   51.178324   92.965117
  11 H     1.0000    0     1.008  -36.026152   50.859119   91.835616
  12 C     6.0000    0    12.011  -44.066224   47.724439   89.071928
  13 H     1.0000    0     1.008  -42.677262   46.316589   89.697387
  14 H     1.0000    0     1.008  -45.030016   48.472690   90.748133
  15 O     8.0000    0    15.999  -42.680983   49.876827   87.635792
  16 C     6.0000    0    12.011  -46.075366   46.366140   87.416627
  17 C     6.0000    0    12.011  -47.991411   48.248696   86.330444
  18 C     6.0000    0    12.011  -46.494846   49.388251   84.091072
  19 C     6.0000    0    12.011  -44.917352   47.120463   83.121226
  20 O     8.0000    0    15.999  -44.887146   45.234293   85.184593
  21 H     1.0000    0     1.008  -46.914514   44.826028   88.501266
  22 H     1.0000    0     1.008  -49.667814   47.243666   85.652116
  23 O     8.0000    0    15.999  -48.848843   50.274395   88.273397
  24 H     1.0000    0     1.008  -47.721334   50.180376   82.624869
  25 H     1.0000    0     1.008  -45.253012   50.905457   84.763839
  26 H     1.0000    0     1.008  -42.970913   47.647473   82.656191
  27 H     1.0000    0     1.008  -45.775601   46.209911   81.477164
  28 H     1.0000    0     1.008  -47.196998   51.303990   88.980076

--------------------------------
INTERNAL COORDINATES (ANGSTROEM)
--------------------------------
 C      0   0   0     0.000000000000     0.00000000     0.00000000
 C      1   0   0     1.533334275362     0.00000000     0.00000000
 C      2   1   0     1.547103422529   101.67907390     0.00000000
 C      3   2   1     1.549188819996   103.12737509    35.02687180
 O      1   2   3     1.466801281701   104.24948604   319.98542309
 H      1   2   3     1.091872245274   114.43876658   203.42640133
 H      2   1   3     1.095759553917   110.06782188   117.34000099
 H      2   1   3     1.095088580892   113.12442239   238.72597460
 H      3   2   1     1.094523183857   112.83161078   156.54780790
 H      3   2   1     1.096628013503   110.07982737   276.98070077
 H      4   3   2     1.095413164062   112.52534669   222.25678475
 H      4   3   2     1.093891219455   112.45670684    98.86663270
 C      1   2   3     2.621828751082   140.98282595    62.41132428
 H     13   1   2     1.097638829488    76.82018180   210.36391476
 H     13   1   2     1.097125790418   122.82785679   313.70913083
 O      1   2   3     1.552547583812   111.30349807    79.08752829
 C     13   1   2     1.553803719908   124.97119715   107.07786373
 C     17  13   1     1.533243946670   111.30161966   270.10554560
 C     18  17  13     1.547610416093   101.64300176    79.13301435
 C     19  18  17     1.549320496218   103.15332016    34.99287347
 O     17  13   1     1.466016029926   110.46971766    25.48427410
 H     17  13   1     1.091254782349   109.11086140   142.90379014
 H     18  17  13     1.094839714296   110.06672793   196.44458271
 O     18  17  13     1.553088535789   113.17090563   317.89992807
 H     19  18  17     1.094960273252   112.85634663   156.54630125
 H     19  18  17     1.096902001092   110.07499531   276.96511624
 H     20  19  18     1.095105930949   112.57899208   222.28037676
 H     20  19  18     1.093316056774   112.40461137    98.83594865
 H     24  18  17     1.095799707976   109.63644539    57.54779238

---------------------------
INTERNAL COORDINATES (A.U.)
---------------------------
 C      0   0   0     0.000000000000     0.00000000     0.00000000
 C      1   0   0     2.897581852189     0.00000000     0.00000000
 C      2   1   0     2.923601769431   101.67907390     0.00000000
 C      3   2   1     2.927542599525   103.12737509    35.02687180
 O      1   2   3     2.771852715300   104.24948604   319.98542309
 H      1   2   3     2.063339516798   114.43876658   203.42640133
 H      2   1   3     2.070685465531   110.06782188   117.34000099
 H      2   1   3     2.069417510270   113.12442239   238.72597460
 H      3   2   1     2.068349064717   112.83161078   156.54780790
 H      3   2   1     2.072326616307   110.07982737   276.98070077
 H      4   3   2     2.070030883569   112.52534669   222.25678475
 H      4   3   2     2.067154825070   112.45670684    98.86663270
 C      1   2   3     4.954538309586   140.98282595    62.41132428
 H     13   1   2     2.074236781690    76.82018180   210.36391476
 H     13   1   2     2.073267278352   122.82785679   313.70913083
 O      1   2   3     2.933889743286   111.30349807    79.08752829
 C     13   1   2     2.936263496494   124.97119715   107.07786373
 C     17  13   1     2.897411155699   111.30161966   270.10554560
 C     18  17  13     2.924559848420   101.64300176    79.13301435
 C     19  18  17     2.927791431522   103.15332016    34.99287347
 O     17  13   1     2.770368804499   110.46971766    25.48427410
 H     17  13   1     2.062172680972   109.11086140   142.90379014
 H     18  17  13     2.068947220560   110.06672793   196.44458271
 O     18  17  13     2.934911994374   113.17090563   317.89992807
 H     19  18  17     2.069175043970   112.85634663   156.54630125
 H     19  18  17     2.072844377814   110.07499531   276.96511624
 H     20  19  18     2.069450297127   112.57899208   222.28037676
 H     20  19  18     2.066067925122   112.40461137    98.83594865
 H     24  18  17     2.070761345705   109.63644539    57.54779238

---------------------
BASIS SET INFORMATION
---------------------
There are 3 groups of distinct atoms

 Group   1 Type C   : 10s4p contracted to 3s2p pattern {631/31}
 Group   2 Type O   : 10s4p contracted to 3s2p pattern {631/31}
 Group   3 Type H   : 4s contracted to 2s pattern {31}

Atom   0C    basis set group =>   1
Atom   1C    basis set group =>   1
Atom   2C    basis set group =>   1
Atom   3C    basis set group =>   1
Atom   4O    basis set group =>   2
Atom   5H    basis set group =>   3
Atom   6H    basis set group =>   3
Atom   7H    basis set group =>   3
Atom   8H    basis set group =>   3
Atom   9H    basis set group =>   3
Atom  10H    basis set group =>   3
Atom  11H    basis set group =>   3
Atom  12C    basis set group =>   1
Atom  13H    basis set group =>   3
Atom  14H    basis set group =>   3
Atom  15O    basis set group =>   2
Atom  16C    basis set group =>   1
Atom  17C    basis set group =>   1
Atom  18C    basis set group =>   1
Atom  19C    basis set group =>   1
Atom  20O    basis set group =>   2
Atom  21H    basis set group =>   3
Atom  22H    basis set group =>   3
Atom  23O    basis set group =>   2
Atom  24H    basis set group =>   3
Atom  25H    basis set group =>   3
Atom  26H    basis set group =>   3
Atom  27H    basis set group =>   3
Atom  28H    basis set group =>   3
------------------------------------------------------------------------------
                           ORCA GTO INTEGRAL CALCULATION
------------------------------------------------------------------------------

                         BASIS SET STATISTICS AND STARTUP INFO

 # of primitive gaussian shells          ...  246
 # of primitive gaussian functions       ...  350
 # of contracted shells                  ...   97
 # of contracted basis functions         ...  149
 Highest angular momentum                ...    1
 Maximum contraction depth               ...    6
 Integral package used                   ... LIBINT
 Integral threshhold            Thresh   ...  2.500e-11
 Primitive cut-off              TCut     ...  2.500e-12


------------------------------ INTEGRAL EVALUATION ----------------------------


 * One electron integrals 
 Pre-screening matrix                    ... done
 Shell pair data                         ... done (   0.002 sec)

-------------------------------------------------------------------------------
                                 ORCA SCF
-------------------------------------------------------------------------------

------------
SCF SETTINGS
------------
Hamiltonian:
 Density Functional     Method          .... DFT(GTOs)
 Exchange Functional    Exchange        .... B88
   X-Alpha parameter    XAlpha          ....  0.666667
   Becke's b parameter  XBeta           ....  0.004200
 Correlation Functional Correlation     .... LYP
 LDA part of GGA corr.  LDAOpt          .... VWN-5
 Gradients option       PostSCFGGA      .... off
 Hybrid DFT is turned on
   Fraction HF Exchange ScalHFX         ....  0.200000
   Scaling of DF-GGA-X  ScalDFX         ....  0.720000
   Scaling of DF-GGA-C  ScalDFC         ....  0.810000
   Scaling of DF-LDA-C  ScalLDAC        ....  1.000000
   Perturbative correction              ....  0.000000
   Density functional embedding theory  .... OFF
   NL short-range parameter             ....  4.800000


General Settings:
 Integral files         IntName         .... project_8049/ensemble_315_240
 Hartree-Fock type      HFTyp           .... RHF
 Total Charge           Charge          ....    0
 Multiplicity           Mult            ....    1
 Number of Electrons    NEL             ....  102
 Basis Dimension        Dim             ....  149
 Nuclear Repulsion      ENuc            ....    886.8846159908 Eh

Convergence Acceleration:
 DIIS                   CNVDIIS         .... on
   Start iteration      DIISMaxIt       ....    12
   Startup error        DIISStart       ....  0.200000
   # of expansion vecs  DIISMaxEq       ....     5
   Bias factor          DIISBfac        ....   1.050
   Max. coefficient     DIISMaxC        ....  10.000
 Newton-Raphson         CNVNR           .... off
 SOSCF                  CNVSOSCF        .... on
   Start iteration      SOSCFMaxIt      ....   150
   Startup grad/error   SOSCFStart      ....  0.003300
 Level Shifting         CNVShift        .... on
   Level shift para.    LevelShift      ....    0.2500
   Turn off err/grad.   ShiftErr        ....    0.0010
 Zerner damping         CNVZerner       .... off
 Static damping         CNVDamp         .... on
   Fraction old density DampFac         ....    0.7000
   Max. Damping (<1)    DampMax         ....    0.9800
   Min. Damping (>=0)   DampMin         ....    0.0000
   Turn off err/grad.   DampErr         ....    0.1000
 Fernandez-Rico         CNVRico         .... off

SCF Procedure:
 Maximum # iterations   MaxIter         ....   125
 SCF integral mode      SCFMode         .... Direct
   Integral package                     .... LIBINT
 Reset frequency        DirectResetFreq ....    20
 Integral Threshold     Thresh          ....  2.500e-11 Eh
 Primitive CutOff       TCut            ....  2.500e-12 Eh

Convergence Tolerance:
 Convergence Check Mode ConvCheckMode   .... Total+1el-Energy
 Convergence forced     ConvForced      .... 0
 Energy Change          TolE            ....  1.000e-08 Eh
 1-El. energy change                    ....  1.000e-05 Eh
 Orbital Gradient       TolG            ....  1.000e-05
 Orbital Rotation angle TolX            ....  1.000e-05
 DIIS Error             TolErr          ....  5.000e-07


Diagonalization of the overlap matrix:
Smallest eigenvalue                        ... 4.035e-03
Time for diagonalization                   ...    0.007 sec
Threshold for overlap eigenvalues          ... 1.000e-08
Number of eigenvalues below threshold      ... 0
Time for construction of square roots      ...    2.403 sec
Total time needed                          ...    2.411 sec

-------------------
DFT GRID GENERATION
-------------------

General Integration Accuracy     IntAcc      ...  4.340
Radial Grid Type                 RadialGrid  ... Gauss-Chebyshev
Angular Grid (max. acc.)         AngularGrid ... Lebedev-110
Angular grid pruning method      GridPruning ... 3 (G Style)
Weight generation scheme         WeightScheme... Becke
Basis function cutoff            BFCut       ...    1.0000e-11
Integration weight cutoff        WCut        ...    1.0000e-14
Grids for H and He will be reduced by one unit

# of grid points (after initial pruning)     ...  34472 (   0.0 sec)
# of grid points (after weights+screening)   ...  30926 (   0.3 sec)
nearest neighbour list constructed           ...    0.0 sec
Grid point re-assignment to atoms done       ...    0.0 sec
Grid point division into batches done        ...    0.0 sec
Reduced shell lists constructed in    0.3 sec

Total number of grid points                  ...    30926
Total number of batches                      ...      497
Average number of points per batch           ...       62
Average number of grid points per atom       ...     1066
Average number of shells per batch           ...    61.02 (62.91%)
Average number of basis functions per batch  ...    99.01 (66.45%)
Average number of large shells per batch     ...    42.99 (70.45%)
Average number of large basis fcns per batch ...    71.21 (71.92%)
Maximum spatial batch extension              ...  20.64, 20.36, 20.05 au
Average spatial batch extension              ...   3.28,  3.54,  3.32 au

Time for grid setup =    5.693 sec

------------------------------
INITIAL GUESS: MODEL POTENTIAL
------------------------------
Loading Hartree-Fock densities                     ... done
Calculating cut-offs                               ... done
Setting up the integral package                    ... done
Initializing the effective Hamiltonian             ... done
Starting the Coulomb interaction                   ... done (   0.4 sec)
Reading the grid                                   ... done
Mapping shells                                     ... done
Starting the XC term evaluation                    ... done (   0.4 sec)
  promolecular density results
     # of electrons  =    101.985835940
     EX              =    -83.664990927
     EC              =     -3.460388661
     EX+EC           =    -87.125379588
Transforming the Hamiltonian                       ... done (   3.2 sec)
Diagonalizing the Hamiltonian                      ... done (   0.0 sec)
Back transforming the eigenvectors                 ... done (   0.0 sec)
Now organizing SCF variables                       ... done
                      ------------------
                      INITIAL GUESS DONE (  14.0 sec)
                      ------------------
--------------
SCF ITERATIONS
--------------
ITER       Energy         Delta-E        Max-DP      RMS-DP      [F,P]     Damp
               ***  Starting incremental Fock matrix formation  ***
  0   -652.5459684511   0.000000000000 0.07628984  0.00292868  0.2343593 0.7000
  1   -652.6821484739  -0.136180022765 0.04454706  0.00201446  0.0953786 0.7000
                               ***Turning on DIIS***
  2   -652.7339565818  -0.051808107954 0.05444739  0.00326321  0.0296827 0.0000
  3   -652.8184260125  -0.084469430667 0.03084057  0.00133185  0.0508225 0.0000
  4   -652.8357522558  -0.017326243275 0.00912928  0.00041401  0.0076086 0.0000
  5   -652.8366325386  -0.000880282848 0.00274947  0.00012744  0.0041150 0.0000
                      *** Initiating the SOSCF procedure ***
                           *** Shutting down DIIS ***
                      *** Re-Reading the Fockian *** 
                      *** Removing any level shift *** 
ITER      Energy       Delta-E        Grad      Rot      Max-DP    RMS-DP
  6   -652.83670958  -0.0000770383  0.000194  0.000194  0.000965  0.000053
               *** Restarting incremental Fock matrix formation ***
  7   -652.83671242  -0.0000028427  0.000098  0.000156  0.000925  0.000028
  8   -652.83671099   0.0000014279  0.000165  0.000120  0.000559  0.000017
  9   -652.83671349  -0.0000024936  0.000024  0.000038  0.000196  0.000007
 10   -652.83671340   0.0000000821  0.000035  0.000024  0.000129  0.000004
 11   -652.83671355  -0.0000001440  0.000005  0.000006  0.000032  0.000001
 12   -652.83671355   0.0000000021  0.000009  0.000004  0.000020  0.000001
                  ***Gradient check signals convergence***
              ***Rediagonalizing the Fockian in SOSCF/NRSCF***

               *****************************************************
               *                     SUCCESS                       *
               *           SCF CONVERGED AFTER  13 CYCLES          *
               *****************************************************

Setting up the final grid:

General Integration Accuracy     IntAcc      ...  4.670
Radial Grid Type                 RadialGrid  ... Gauss-Chebyshev
Angular Grid (max. acc.)         AngularGrid ... Lebedev-302
Angular grid pruning method      GridPruning ... 3 (G Style)
Weight generation scheme         WeightScheme... Becke
Basis function cutoff            BFCut       ...    1.0000e-11
Integration weight cutoff        WCut        ...    1.0000e-14
Grids for H and He will be reduced by one unit

# of grid points (after initial pruning)     ... 135060 (   0.1 sec)
# of grid points (after weights+screening)   ... 118621 (   1.1 sec)
nearest neighbour list constructed           ...    0.0 sec
Grid point re-assignment to atoms done       ...    0.0 sec
Grid point division into batches done        ...    0.4 sec
Reduced shell lists constructed in    1.6 sec

Total number of grid points                  ...   118621
Total number of batches                      ...     1869
Average number of points per batch           ...       63
Average number of grid points per atom       ...     4090
Average number of shells per batch           ...    55.71 (57.43%)
Average number of basis functions per batch  ...    90.69 (60.87%)
Average number of large shells per batch     ...    38.38 (68.90%)
Average number of large basis fcns per batch ...    63.75 (70.29%)
Maximum spatial batch extension              ...  17.65, 17.72, 19.83 au
Average spatial batch extension              ...   2.17,  2.25,  2.21 au

Final grid set up in    4.8 sec
Final integration                            ... done (   9.3 sec)
Change in XC energy                          ...    -0.000960685
Integrated number of electrons               ...   102.000076509
Previous integrated no of electrons          ...   101.995815381

----------------
TOTAL SCF ENERGY
----------------

Total Energy       :         -652.83767423 Eh          -17764.61625 eV

Components:
Nuclear Repulsion  :          886.88461599 Eh           24133.35732 eV
Electronic Energy  :        -1539.72229022 Eh          -41897.97357 eV
One Electron Energy:        -2651.74878504 Eh          -72157.75287 eV
Two Electron Energy:         1112.02649482 Eh           30259.77930 eV

Virial components:
Potential Energy   :        -1301.77549285 Eh          -35423.11204 eV
Kinetic Energy     :          648.93781862 Eh           17658.49579 eV
Virial Ratio       :            2.00600960


DFT components:
N(Alpha)           :       51.000038254477 electrons
N(Beta)            :       51.000038254477 electrons
N(Total)           :      102.000076508953 electrons
E(X)               :      -67.594796787724 Eh       
E(C)               :       -4.071910836486 Eh       
E(XC)              :      -71.666707624209 Eh       
DFET-embed. en.    :        0.000000000000 Eh       

---------------
SCF CONVERGENCE
---------------

  Last Energy change         ...   -3.6941e-09  Tolerance :   1.0000e-08
  Last MAX-Density change    ...    2.3060e-06  Tolerance :   1.0000e-07
  Last RMS-Density change    ...    8.8516e-08  Tolerance :   5.0000e-09
  Last Orbital Gradient      ...    3.1542e-07  Tolerance :   1.0000e-05
  Last Orbital Rotation      ...    5.0614e-07  Tolerance :   1.0000e-05

             **** THE GBW FILE WAS UPDATED (project_8049/ensemble_315_240.gbw) ****
             **** DENSITY FILE WAS UPDATED (project_8049/ensemble_315_240.scfp) ****
             **** ENERGY FILE WAS UPDATED (project_8049/ensemble_315_240.en.tmp) ****
             **** THE GBW FILE WAS UPDATED (project_8049/ensemble_315_240.gbw) ****
             **** DENSITY FILE WAS UPDATED (project_8049/ensemble_315_240.scfp) ****
----------------
ORBITAL ENERGIES
----------------

  NO   OCC          E(Eh)            E(eV) 
   0   2.0000     -19.156105      -521.2641 
   1   2.0000     -19.151289      -521.1331 
   2   2.0000     -19.140346      -520.8353 
   3   2.0000     -19.134056      -520.6641 
   4   2.0000     -10.291350      -280.0419 
   5   2.0000     -10.236005      -278.5358 
   6   2.0000     -10.234256      -278.4883 
   7   2.0000     -10.233652      -278.4718 
   8   2.0000     -10.230376      -278.3827 
   9   2.0000     -10.219956      -278.0991 
  10   2.0000     -10.199873      -277.5527 
  11   2.0000     -10.195035      -277.4210 
  12   2.0000     -10.170867      -276.7634 
  13   2.0000      -1.043704       -28.4006 
  14   2.0000      -1.019021       -27.7290 
  15   2.0000      -0.968313       -26.3491 
  16   2.0000      -0.959014       -26.0961 
  17   2.0000      -0.796286       -21.6680 
  18   2.0000      -0.768859       -20.9217 
  19   2.0000      -0.758298       -20.6343 
  20   2.0000      -0.736433       -20.0394 
  21   2.0000      -0.670820       -18.2540 
  22   2.0000      -0.606516       -16.5041 
  23   2.0000      -0.597445       -16.2573 
  24   2.0000      -0.587469       -15.9859 
  25   2.0000      -0.561378       -15.2759 
  26   2.0000      -0.518549       -14.1104 
  27   2.0000      -0.507588       -13.8122 
  28   2.0000      -0.493354       -13.4248 
  29   2.0000      -0.479233       -13.0406 
  30   2.0000      -0.459702       -12.5091 
  31   2.0000      -0.454925       -12.3791 
  32   2.0000      -0.438249       -11.9254 
  33   2.0000      -0.425509       -11.5787 
  34   2.0000      -0.417091       -11.3496 
  35   2.0000      -0.404271       -11.0008 
  36   2.0000      -0.393592       -10.7102 
  37   2.0000      -0.390894       -10.6368 
  38   2.0000      -0.380624       -10.3573 
  39   2.0000      -0.367198        -9.9920 
  40   2.0000      -0.362940        -9.8761 
  41   2.0000      -0.355725        -9.6798 
  42   2.0000      -0.352570        -9.5939 
  43   2.0000      -0.328845        -8.9483 
  44   2.0000      -0.318615        -8.6700 
  45   2.0000      -0.306023        -8.3273 
  46   2.0000      -0.297967        -8.1081 
  47   2.0000      -0.274376        -7.4662 
  48   2.0000      -0.261269        -7.1095 
  49   2.0000      -0.255917        -6.9639 
  50   2.0000      -0.235084        -6.3970 
  51   0.0000       0.042515         1.1569 
  52   0.0000       0.057724         1.5707 
  53   0.0000       0.084259         2.2928 
  54   0.0000       0.098613         2.6834 
  55   0.0000       0.101820         2.7707 
  56   0.0000       0.105748         2.8775 
  57   0.0000       0.108467         2.9515 
  58   0.0000       0.116812         3.1786 
  59   0.0000       0.135785         3.6949 
  60   0.0000       0.140294         3.8176 
  61   0.0000       0.142172         3.8687 
  62   0.0000       0.146968         3.9992 
  63   0.0000       0.155209         4.2234 
  64   0.0000       0.159804         4.3485 
  65   0.0000       0.163723         4.4551 
  66   0.0000       0.178179         4.8485 
  67   0.0000       0.187036         5.0895 
  68   0.0000       0.188821         5.1381 
  69   0.0000       0.192964         5.2508 
  70   0.0000       0.200255         5.4492 
  71   0.0000       0.211364         5.7515 
  72   0.0000       0.219607         5.9758 
  73   0.0000       0.225920         6.1476 
  74   0.0000       0.246938         6.7195 
  75   0.0000       0.257212         6.9991 
  76   0.0000       0.257692         7.0122 
  77   0.0000       0.276268         7.5176 
  78   0.0000       0.282356         7.6833 
  79   0.0000       0.291025         7.9192 
  80   0.0000       0.308081         8.3833 
  81   0.0000       0.516781        14.0623 
  82   0.0000       0.524174        14.2635 
  83   0.0000       0.539466        14.6796 
  84   0.0000       0.549306        14.9474 
  85   0.0000       0.558195        15.1893 
  86   0.0000       0.564454        15.3596 
  87   0.0000       0.583352        15.8738 
  88   0.0000       0.591208        16.0876 
  89   0.0000       0.595434        16.2026 
  90   0.0000       0.598800        16.2942 
  91   0.0000       0.601795        16.3757 
  92   0.0000       0.620326        16.8799 
  93   0.0000       0.632357        17.2073 
  94   0.0000       0.644247        17.5309 
  95   0.0000       0.651233        17.7210 
  96   0.0000       0.657931        17.9032 
  97   0.0000       0.667989        18.1769 
  98   0.0000       0.674599        18.3568 
  99   0.0000       0.704799        19.1786 
 100   0.0000       0.726276        19.7630 
 101   0.0000       0.773416        21.0457 
 102   0.0000       0.789408        21.4809 
 103   0.0000       0.792841        21.5743 
 104   0.0000       0.803069        21.8526 
 105   0.0000       0.820548        22.3282 
 106   0.0000       0.842302        22.9202 
 107   0.0000       0.858571        23.3629 
 108   0.0000       0.861721        23.4486 
 109   0.0000       0.870533        23.6884 
 110   0.0000       0.882971        24.0269 
 111   0.0000       0.889263        24.1981 
 112   0.0000       0.899266        24.4703 
 113   0.0000       0.904463        24.6117 
 114   0.0000       0.926602        25.2141 
 115   0.0000       0.928354        25.2618 
 116   0.0000       0.936556        25.4850 
 117   0.0000       0.940786        25.6001 
 118   0.0000       0.948748        25.8167 
 119   0.0000       0.963612        26.2212 
 120   0.0000       0.970563        26.4104 
 121   0.0000       0.986063        26.8321 
 122   0.0000       1.016006        27.6469 
 123   0.0000       1.024978        27.8911 
 124   0.0000       1.033326        28.1182 
 125   0.0000       1.046591        28.4792 
 126   0.0000       1.073389        29.2084 
 127   0.0000       1.094646        29.7868 
 128   0.0000       1.114494        30.3269 
 129   0.0000       1.164784        31.6954 
 130   0.0000       1.195076        32.5197 
 131   0.0000       1.252147        34.0726 
 132   0.0000       1.281609        34.8744 
 133   0.0000       1.315053        35.7844 
 134   0.0000       1.342150        36.5217 
 135   0.0000       1.375052        37.4171 
 136   0.0000       1.393737        37.9255 
 137   0.0000       1.423100        38.7245 
 138   0.0000       1.446965        39.3739 
 139   0.0000       1.469013        39.9739 
 140   0.0000       1.487033        40.4642 
 141   0.0000       1.504577        40.9416 
 142   0.0000       1.615616        43.9632 
 143   0.0000       1.699280        46.2398 
 144   0.0000       1.747956        47.5643 
 145   0.0000       1.897714        51.6394 
 146   0.0000       1.970782        53.6277 
 147   0.0000       2.056233        55.9529 
 148   0.0000       2.084281        56.7162 

                    ********************************
                    * MULLIKEN POPULATION ANALYSIS *
                    ********************************

-----------------------
MULLIKEN ATOMIC CHARGES
-----------------------
   0 C :    0.293338
   1 C :   -0.278314
   2 C :   -0.298962
   3 C :   -0.005529
   4 O :   -0.510324
   5 H :    0.168288
   6 H :    0.157557
   7 H :    0.160848
   8 H :    0.145688
   9 H :    0.160006
  10 H :    0.148555
  11 H :    0.147267
  12 C :   -0.047700
  13 H :    0.180266
  14 H :    0.136922
  15 O :   -0.542862
  16 C :    0.073479
  17 C :    0.089275
  18 C :   -0.301698
  19 C :   -0.004758
  20 O :   -0.520702
  21 H :    0.154707
  22 H :    0.158295
  23 O :   -0.606555
  24 H :    0.134520
  25 H :    0.182236
  26 H :    0.132697
  27 H :    0.138632
  28 H :    0.354828
Sum of atomic charges:   -0.0000000

--------------------------------
MULLIKEN REDUCED ORBITAL CHARGES
--------------------------------
  0 C s       :     3.230186  s :     3.230186
      pz      :     0.796411  p :     2.476476
      px      :     0.679588
      py      :     1.000477
  1 C s       :     3.312746  s :     3.312746
      pz      :     0.988117  p :     2.965568
      px      :     1.036083
      py      :     0.941368
  2 C s       :     3.315683  s :     3.315683
      pz      :     0.905605  p :     2.983279
      px      :     1.087278
      py      :     0.990396
  3 C s       :     3.261746  s :     3.261746
      pz      :     0.938577  p :     2.743783
      px      :     1.062145
      py      :     0.743061
  4 O s       :     3.943394  s :     3.943394
      pz      :     1.316812  p :     4.566930
      px      :     1.730367
      py      :     1.519751
  5 H s       :     0.831712  s :     0.831712
  6 H s       :     0.842443  s :     0.842443
  7 H s       :     0.839152  s :     0.839152
  8 H s       :     0.854312  s :     0.854312
  9 H s       :     0.839994  s :     0.839994
 10 H s       :     0.851445  s :     0.851445
 11 H s       :     0.852733  s :     0.852733
 12 C s       :     3.299100  s :     3.299100
      pz      :     0.919091  p :     2.748600
      px      :     0.963024
      py      :     0.866485
 13 H s       :     0.819734  s :     0.819734
 14 H s       :     0.863078  s :     0.863078
 15 O s       :     3.943939  s :     3.943939
      pz      :     1.737175  p :     4.598923
      px      :     1.278289
      py      :     1.583458
 16 C s       :     3.264057  s :     3.264057
      pz      :     0.799694  p :     2.662464
      px      :     0.907928
      py      :     0.954843
 17 C s       :     3.284684  s :     3.284684
      pz      :     0.830456  p :     2.626041
      px      :     0.973571
      py      :     0.822014
 18 C s       :     3.316392  s :     3.316392
      pz      :     0.980446  p :     2.985306
      px      :     1.000321
      py      :     1.004540
 19 C s       :     3.261942  s :     3.261942
      pz      :     0.845486  p :     2.742816
      px      :     1.058356
      py      :     0.838974
 20 O s       :     3.944080  s :     3.944080
      pz      :     1.219922  p :     4.576621
      px      :     1.781975
      py      :     1.574725
 21 H s       :     0.845293  s :     0.845293
 22 H s       :     0.841705  s :     0.841705
 23 O s       :     3.951891  s :     3.951891
      pz      :     1.623527  p :     4.654664
      px      :     1.510984
      py      :     1.520153
 24 H s       :     0.865480  s :     0.865480
 25 H s       :     0.817764  s :     0.817764
 26 H s       :     0.867303  s :     0.867303
 27 H s       :     0.861368  s :     0.861368
 28 H s       :     0.645172  s :     0.645172


                     *******************************
                     * LOEWDIN POPULATION ANALYSIS *
                     *******************************

----------------------
LOEWDIN ATOMIC CHARGES
----------------------
   0 C :    0.188425
   1 C :   -0.216203
   2 C :   -0.216683
   3 C :   -0.029940
   4 O :   -0.317469
   5 H :    0.111143
   6 H :    0.121666
   7 H :    0.126071
   8 H :    0.115640
   9 H :    0.117723
  10 H :    0.105722
  11 H :    0.104841
  12 C :   -0.052034
  13 H :    0.126833
  14 H :    0.104409
  15 O :   -0.374869
  16 C :    0.018798
  17 C :    0.044682
  18 C :   -0.242838
  19 C :   -0.026437
  20 O :   -0.327214
  21 H :    0.119189
  22 H :    0.118696
  23 O :   -0.443989
  24 H :    0.109818
  25 H :    0.131128
  26 H :    0.096646
  27 H :    0.098858
  28 H :    0.287391

-------------------------------
LOEWDIN REDUCED ORBITAL CHARGES
-------------------------------
  0 C s       :     2.981422  s :     2.981422
      pz      :     0.917704  p :     2.830153
      px      :     0.823722
      py      :     1.088726
  1 C s       :     2.975821  s :     2.975821
      pz      :     1.079203  p :     3.240382
      px      :     1.107886
      py      :     1.053292
  2 C s       :     2.972974  s :     2.972974
      pz      :     1.030500  p :     3.243709
      px      :     1.133600
      py      :     1.079610
  3 C s       :     2.984031  s :     2.984031
      pz      :     1.038205  p :     3.045910
      px      :     1.121659
      py      :     0.886046
  4 O s       :     3.608389  s :     3.608389
      pz      :     1.380149  p :     4.709080
      px      :     1.762452
      py      :     1.566479
  5 H s       :     0.888857  s :     0.888857
  6 H s       :     0.878334  s :     0.878334
  7 H s       :     0.873929  s :     0.873929
  8 H s       :     0.884360  s :     0.884360
  9 H s       :     0.882277  s :     0.882277
 10 H s       :     0.894278  s :     0.894278
 11 H s       :     0.895159  s :     0.895159
 12 C s       :     3.007273  s :     3.007273
      pz      :     1.028440  p :     3.044761
      px      :     1.052056
      py      :     0.964264
 13 H s       :     0.873167  s :     0.873167
 14 H s       :     0.895591  s :     0.895591
 15 O s       :     3.651774  s :     3.651774
      pz      :     1.764375  p :     4.723095
      px      :     1.337539
      py      :     1.621181
 16 C s       :     2.967116  s :     2.967116
      pz      :     0.939787  p :     3.014086
      px      :     1.025240
      py      :     1.049058
 17 C s       :     2.971924  s :     2.971924
      pz      :     0.954869  p :     2.983394
      px      :     1.079410
      py      :     0.949114
 18 C s       :     2.983455  s :     2.983455
      pz      :     1.074834  p :     3.259384
      px      :     1.088035
      py      :     1.096516
 19 C s       :     2.982089  s :     2.982089
      pz      :     0.960946  p :     3.044349
      px      :     1.121654
      py      :     0.961748
 20 O s       :     3.600797  s :     3.600797
      pz      :     1.294595  p :     4.726417
      px      :     1.808824
      py      :     1.622998
 21 H s       :     0.880811  s :     0.880811
 22 H s       :     0.881304  s :     0.881304
 23 O s       :     3.690821  s :     3.690821
      pz      :     1.651657  p :     4.753169
      px      :     1.544318
      py      :     1.557194
 24 H s       :     0.890182  s :     0.890182
 25 H s       :     0.868872  s :     0.868872
 26 H s       :     0.903354  s :     0.903354
 27 H s       :     0.901142  s :     0.901142
 28 H s       :     0.712609  s :     0.712609


                      *****************************
                      * MAYER POPULATION ANALYSIS *
                      *****************************

  NA   - Mulliken gross atomic population
  ZA   - Total nuclear charge
  QA   - Mulliken gross atomic charge
  VA   - Mayer's total valence
  BVA  - Mayer's bonded valence
  FA   - Mayer's free valence

  ATOM       NA         ZA         QA         VA         BVA        FA
  0 C      5.7067     6.0000     0.2933     3.6305     3.6305    -0.0000
  1 C      6.2783     6.0000    -0.2783     3.7319     3.7319    -0.0000
  2 C      6.2990     6.0000    -0.2990     3.7634     3.7634    -0.0000
  3 C      6.0055     6.0000    -0.0055     3.6552     3.6552     0.0000
  4 O      8.5103     8.0000    -0.5103     1.8020     1.8020    -0.0000
  5 H      0.8317     1.0000     0.1683     0.9238     0.9238     0.0000
  6 H      0.8424     1.0000     0.1576     0.9299     0.9299    -0.0000
  7 H      0.8392     1.0000     0.1608     0.9369     0.9369     0.0000
  8 H      0.8543     1.0000     0.1457     0.9360     0.9360    -0.0000
  9 H      0.8400     1.0000     0.1600     0.9346     0.9346     0.0000
 10 H      0.8514     1.0000     0.1486     0.9264     0.9264    -0.0000
 11 H      0.8527     1.0000     0.1473     0.9282     0.9282    -0.0000
 12 C      6.0477     6.0000    -0.0477     3.6158     3.6158     0.0000
 13 H      0.8197     1.0000     0.1803     0.9372     0.9372    -0.0000
 14 H      0.8631     1.0000     0.1369     0.9388     0.9388    -0.0000
 15 O      8.5429     8.0000    -0.5429     1.7817     1.7817    -0.0000
 16 C      5.9265     6.0000     0.0735     3.5792     3.5792    -0.0000
 17 C      5.9107     6.0000     0.0893     3.6548     3.6548     0.0000
 18 C      6.3017     6.0000    -0.3017     3.6987     3.6987    -0.0000
 19 C      6.0048     6.0000    -0.0048     3.6634     3.6634    -0.0000
 20 O      8.5207     8.0000    -0.5207     1.7666     1.7666     0.0000
 21 H      0.8453     1.0000     0.1547     0.9321     0.9321     0.0000
 22 H      0.8417     1.0000     0.1583     0.9300     0.9300     0.0000
 23 O      8.6066     8.0000    -0.6066     1.7623     1.7623    -0.0000
 24 H      0.8655     1.0000     0.1345     0.9374     0.9374    -0.0000
 25 H      0.8178     1.0000     0.1822     0.9533     0.9533     0.0000
 26 H      0.8673     1.0000     0.1327     0.9297     0.9297    -0.0000
 27 H      0.8614     1.0000     0.1386     0.9273     0.9273     0.0000
 28 H      0.6452     1.0000     0.3548     0.8487     0.8487    -0.0000

  Mayer bond orders larger than 0.100000
B(  0-C ,  1-C ) :   0.9453 B(  0-C ,  4-O ) :   0.8981 B(  0-C ,  5-H ) :   0.9167 
B(  0-C , 15-O ) :   0.8274 B(  1-C ,  2-C ) :   0.9548 B(  1-C ,  6-H ) :   0.9343 
B(  1-C ,  7-H ) :   0.9339 B(  2-C ,  3-C ) :   0.9541 B(  2-C ,  8-H ) :   0.9443 
B(  2-C ,  9-H ) :   0.9452 B(  3-C ,  4-O ) :   0.8337 B(  3-C , 10-H ) :   0.9347 
B(  3-C , 11-H ) :   0.9391 B( 12-C , 13-H ) :   0.9167 B( 12-C , 14-H ) :   0.9119 
B( 12-C , 15-O ) :   0.8396 B( 12-C , 16-C ) :   0.8964 B( 16-C , 17-C ) :   0.8937 
B( 16-C , 20-O ) :   0.8706 B( 16-C , 21-H ) :   0.9254 B( 17-C , 18-C ) :   0.9287 
B( 17-C , 22-H ) :   0.9358 B( 17-C , 23-O ) :   0.8917 B( 18-C , 19-C ) :   0.9382 
B( 18-C , 24-H ) :   0.9420 B( 18-C , 25-H ) :   0.9157 B( 19-C , 20-O ) :   0.8389 
B( 19-C , 26-H ) :   0.9313 B( 19-C , 27-H ) :   0.9378 B( 23-O , 28-H ) :   0.7952 


-------
TIMINGS
-------

Total SCF time: 0 days 0 hours 8 min 40 sec 

Total time                  ....     520.229 sec
Sum of individual times     ....     461.227 sec  ( 88.7%)

Fock matrix formation       ....     421.336 sec  ( 81.0%)
  XC integration            ....     182.568 sec  ( 43.3% of F)
    Basis function eval.    ....       3.203 sec  (  1.8% of XC)
    Density eval.           ....       2.001 sec  (  1.1% of XC)
    XC-Functional eval.     ....       1.124 sec  (  0.6% of XC)
    XC-Potential eval.      ....       1.344 sec  (  0.7% of XC)
Diagonalization             ....       5.344 sec  (  1.0%)
Density matrix formation    ....       0.012 sec  (  0.0%)
Population analysis         ....       4.944 sec  (  1.0%)
Initial guess               ....       8.270 sec  (  1.6%)
Orbital Transformation      ....       0.000 sec  (  0.0%)
Orbital Orthonormalization  ....       0.000 sec  (  0.0%)
DIIS solution               ....       8.844 sec  (  1.7%)
SOSCF solution              ....       1.994 sec  (  0.4%)
Grid generation             ....      10.484 sec  (  2.0%)

-------------------------   --------------------
FINAL SINGLE POINT ENERGY      -652.837674233417
-------------------------   --------------------

------------------------------------------------------------------------------
                         ORCA SCF GRADIENT CALCULATION
------------------------------------------------------------------------------

Gradient of the Kohn-Sham DFT energy:
Kohn-Sham wavefunction type      ... RKS
Hartree-Fock exchange scaling    ...    0.200
Number of operators              ...    1
Number of atoms                  ...   29
Basis set dimensions             ...  149
Integral neglect threshold       ... 2.5e-11
Integral primitive cutoff        ... 2.5e-12

Nuclear repulsion gradient       ... done
One Electron Gradient            ... done
Pre-screening matrix             ... done
Starting the two electron gradient:
Two electron gradient done
Exchange-correlation gradient    ... done

------------------
CARTESIAN GRADIENT
------------------

   1   C   :    0.014204235    0.011036081   -0.015350016
   2   C   :    0.015861399   -0.004329319   -0.004432324
   3   C   :   -0.000124116   -0.000633829   -0.002064724
   4   C   :   -0.000472079   -0.005654797   -0.003855520
   5   O   :    0.007843385   -0.004775404    0.015796632
   6   H   :    0.005155231    0.002344377   -0.002443348
   7   H   :    0.001228133    0.003924313    0.000291816
   8   H   :    0.000253951    0.001579794   -0.000937606
   9   H   :   -0.000653064    0.000780844    0.000122415
  10   H   :   -0.000748009    0.001578010    0.001074973
  11   H   :   -0.000562185    0.000876065    0.001146323
  12   H   :   -0.000106591    0.001054398    0.000570458
  13   C   :   -0.012299229    0.005999046    0.011662010
  14   H   :   -0.000999111   -0.005803472    0.001706583
  15   H   :   -0.005988506   -0.006943331    0.001984694
  16   O   :   -0.019589880    0.017672653   -0.018142239
  17   C   :   -0.017614514   -0.014906656   -0.000902377
  18   C   :   -0.005955266   -0.031613112   -0.016566678
  19   C   :    0.003467348   -0.002020202    0.008961285
  20   C   :    0.002110042   -0.005779577    0.002006368
  21   O   :    0.001493068    0.000123453   -0.003431596
  22   H   :    0.000522309    0.000121782   -0.001852048
  23   H   :    0.005085216   -0.008124910   -0.008096946
  24   O   :   -0.051034951   -0.002243034    0.001497051
  25   H   :    0.002407388    0.002668872   -0.000130687
  26   H   :    0.004193437    0.005399501    0.000076931
  27   H   :    0.000711745    0.000000056   -0.000548833
  28   H   :    0.000284315    0.000839114    0.000521782
  29   H   :    0.051326300    0.036829285    0.031335622

Difference to translation invariance:
           :    0.0000000001   -0.0000000001   -0.0000000000

Norm of the cartesian gradient     ...    0.1121542554
RMS gradient                       ...    0.0120241983
MAX gradient                       ...    0.0513263000

-------
TIMINGS
-------

Total SCF gradient time            ...       30.036 sec

One electron gradient       ....       0.407 sec  (  1.4%)
Prescreening matrices       ....       0.049 sec  (  0.2%)
Two electron gradient       ....      15.981 sec  ( 53.2%)
XC gradient                 ....       9.948 sec  ( 33.1%)
------------------------------------------------------------------------------
                         ORCA GEOMETRY RELAXATION STEP
------------------------------------------------------------------------------

Reading the OPT-File                    .... done
Getting information on internals        .... done
Copying old internal coords+grads       .... done
Making the new internal coordinates     .... (new redundants).... done
Validating the new internal coordinates .... (new redundants).... done
Calculating the B-matrix                .... done
Calculating the G,G- and P matrices     .... done
Transforming gradient to internals      .... done
Projecting the internal gradient        .... done
Number of atoms                         ....  29
Number of internal coordinates          .... 172
Current Energy                          ....  -652.837674233 Eh
Current gradient norm                   ....     0.112154255 Eh/bohr
Maximum allowed component of the step   ....  0.300
Current trust radius                    ....  0.300
Evaluating the initial hessian          ....  (Almloef) done
Projecting the Hessian                  .... done
Forming the augmented Hessian           .... done
Diagonalizing the augmented Hessian     .... done
Last element of RFO vector              ....  0.922235209
Lowest eigenvalues of augmented Hessian:
 -0.044569673  0.008030048  0.033064445  0.033226980  0.037349971
Length of the computed step             ....  0.419230693
Warning: the length of the step is outside the trust region - taking restricted step instead
The input lambda is                     ....    -0.044570
   iter:   1  x=   -0.087067  g=    2.017863 f(x)=     0.085754
   iter:   2  x=   -0.119834  g=    0.896189 f(x)=     0.029365
   iter:   3  x=   -0.129141  g=    0.593235 f(x)=     0.005521
   iter:   4  x=   -0.129644  g=    0.536678 f(x)=     0.000270
   iter:   5  x=   -0.129646  g=    0.533865 f(x)=     0.000001
   iter:   6  x=   -0.129646  g=    0.533858 f(x)=     0.000000
   iter:   7  x=   -0.129646  g=    0.533858 f(x)=     0.000000
The output lambda is                    ....    -0.129646 (7 iterations)
The final length of the internal step   ....  0.300000000
Converting the step to cartesian space:
 Initial RMS(Int)=    0.0228747855
Transforming coordinates:
 Iter   0:  RMS(Cart)=    0.1234906825 RMS(Int)=    0.4774950221
 Iter   1:  RMS(Cart)=    0.0060585070 RMS(Int)=    0.0028489471
 Iter   2:  RMS(Cart)=    0.0006393230 RMS(Int)=    0.0002107071
 Iter   3:  RMS(Cart)=    0.0000626251 RMS(Int)=    0.0000270365
 Iter   4:  RMS(Cart)=    0.0000067011 RMS(Int)=    0.0000034393
 Iter   5:  RMS(Cart)=    0.0000006551 RMS(Int)=    0.0000002744
 Iter   6:  RMS(Cart)=    0.0000000768 RMS(Int)=    0.0000000443
Imposing constraints:
 Iter   0:  RMS(Cart)=    0.0000730068 RMS(Int)=    0.0000868307
 Iter   1:  RMS(Cart)=    0.0000463099 RMS(Int)=    0.0000708538
 Iter   2:  RMS(Cart)=    0.0000345596 RMS(Int)=    0.0000621900
 Iter   3:  RMS(Cart)=    0.0000270853 RMS(Int)=    0.0000571410
[...]
  29   2.0000      -0.493350       -13.4247 
  30   2.0000      -0.463877       -12.6227 
  31   2.0000      -0.460379       -12.5275 
  32   2.0000      -0.444238       -12.0883 
  33   2.0000      -0.429523       -11.6879 
  34   2.0000      -0.421598       -11.4723 
  35   2.0000      -0.412743       -11.2313 
  36   2.0000      -0.400900       -10.9090 
  37   2.0000      -0.395833       -10.7712 
  38   2.0000      -0.381901       -10.3921 
  39   2.0000      -0.365414        -9.9434 
  40   2.0000      -0.361480        -9.8364 
  41   2.0000      -0.355462        -9.6726 
  42   2.0000      -0.349697        -9.5157 
  43   2.0000      -0.334826        -9.1111 
  44   2.0000      -0.322850        -8.7852 
  45   2.0000      -0.306993        -8.3537 
  46   2.0000      -0.299760        -8.1569 
  47   2.0000      -0.274063        -7.4576 
  48   2.0000      -0.264051        -7.1852 
  49   2.0000      -0.258032        -7.0214 
  50   2.0000      -0.235255        -6.4016 
  51   0.0000       0.066620         1.8128 
  52   0.0000       0.079489         2.1630 
  53   0.0000       0.094689         2.5766 
  54   0.0000       0.101117         2.7515 
  55   0.0000       0.108594         2.9550 
  56   0.0000       0.112006         3.0478 
  57   0.0000       0.115080         3.1315 
  58   0.0000       0.128930         3.5084 
  59   0.0000       0.135182         3.6785 
  60   0.0000       0.146093         3.9754 
  61   0.0000       0.151101         4.1117 
  62   0.0000       0.153195         4.1686 
  63   0.0000       0.158191         4.3046 
  64   0.0000       0.164378         4.4730 
  65   0.0000       0.177212         4.8222 
  66   0.0000       0.184790         5.0284 
  67   0.0000       0.191754         5.2179 
  68   0.0000       0.199042         5.4162 
  69   0.0000       0.202760         5.5174 
  70   0.0000       0.214964         5.8495 
  71   0.0000       0.220109         5.9895 
  72   0.0000       0.224558         6.1105 
  73   0.0000       0.237097         6.4517 
  74   0.0000       0.255881         6.9629 
  75   0.0000       0.258927         7.0458 
  76   0.0000       0.264926         7.2090 
  77   0.0000       0.283612         7.7175 
  78   0.0000       0.293090         7.9754 
  79   0.0000       0.298196         8.1143 
  80   0.0000       0.322800         8.7838 
  81   0.0000       0.520046        14.1512 
  82   0.0000       0.527221        14.3464 
  83   0.0000       0.542486        14.7618 
  84   0.0000       0.551553        15.0085 
  85   0.0000       0.553938        15.0734 
  86   0.0000       0.563808        15.3420 
  87   0.0000       0.582312        15.8455 
  88   0.0000       0.589047        16.0288 
  89   0.0000       0.597988        16.2721 
  90   0.0000       0.609608        16.5883 
  91   0.0000       0.610604        16.6154 
  92   0.0000       0.626867        17.0579 
  93   0.0000       0.634083        17.2543 
  94   0.0000       0.642435        17.4816 
  95   0.0000       0.652142        17.7457 
  96   0.0000       0.656274        17.8581 
  97   0.0000       0.668367        18.1872 
  98   0.0000       0.679674        18.4949 
  99   0.0000       0.694526        18.8990 
 100   0.0000       0.733403        19.9569 
 101   0.0000       0.773349        21.0439 
 102   0.0000       0.795872        21.6568 
 103   0.0000       0.807339        21.9688 
 104   0.0000       0.824907        22.4469 
 105   0.0000       0.839622        22.8473 
 106   0.0000       0.843392        22.9499 
 107   0.0000       0.853993        23.2383 
 108   0.0000       0.862709        23.4755 
 109   0.0000       0.866880        23.5890 
 110   0.0000       0.884318        24.0635 
 111   0.0000       0.894821        24.3493 
 112   0.0000       0.901564        24.5328 
 113   0.0000       0.906731        24.6734 
 114   0.0000       0.924609        25.1599 
 115   0.0000       0.934264        25.4226 
 116   0.0000       0.937203        25.5026 
 117   0.0000       0.942105        25.6360 
 118   0.0000       0.954943        25.9853 
 119   0.0000       0.961682        26.1687 
 120   0.0000       0.971426        26.4338 
 121   0.0000       0.992855        27.0170 
 122   0.0000       1.006552        27.3897 
 123   0.0000       1.021831        27.8054 
 124   0.0000       1.036451        28.2033 
 125   0.0000       1.050154        28.5761 
 126   0.0000       1.081419        29.4269 
 127   0.0000       1.102986        30.0138 
 128   0.0000       1.118608        30.4389 
 129   0.0000       1.156605        31.4728 
 130   0.0000       1.212274        32.9877 
 131   0.0000       1.236666        33.6514 
 132   0.0000       1.280293        34.8385 
 133   0.0000       1.321995        35.9733 
 134   0.0000       1.333653        36.2905 
 135   0.0000       1.347497        36.6673 
 136   0.0000       1.389199        37.8020 
 137   0.0000       1.425903        38.8008 
 138   0.0000       1.449701        39.4484 
 139   0.0000       1.491206        40.5778 
 140   0.0000       1.526321        41.5333 
 141   0.0000       1.538456        41.8635 
 142   0.0000       1.647396        44.8279 
 143   0.0000       1.730425        47.0873 
 144   0.0000       1.774535        48.2875 
 145   0.0000       1.922522        52.3145 
 146   0.0000       2.003413        54.5156 
 147   0.0000       2.038471        55.4696 
 148   0.0000       2.134475        58.0820 

                    ********************************
                    * MULLIKEN POPULATION ANALYSIS *
                    ********************************

-----------------------
MULLIKEN ATOMIC CHARGES
-----------------------
   0 C :    0.292997
   1 C :   -0.264256
   2 C :   -0.299079
   3 C :   -0.008987
   4 O :   -0.511369
   5 H :    0.163738
   6 H :    0.148728
   7 H :    0.154481
   8 H :    0.145243
   9 H :    0.156203
  10 H :    0.148052
  11 H :    0.148571
  12 C :   -0.035682
  13 H :    0.178992
  14 H :    0.140172
  15 O :   -0.547932
  16 C :    0.095872
  17 C :    0.084641
  18 C :   -0.310062
  19 C :   -0.005642
  20 O :   -0.524659
  21 H :    0.147322
  22 H :    0.161001
  23 O :   -0.605786
  24 H :    0.142862
  25 H :    0.162041
  26 H :    0.137018
  27 H :    0.142233
  28 H :    0.363287
Sum of atomic charges:   -0.0000000

--------------------------------
MULLIKEN REDUCED ORBITAL CHARGES
--------------------------------
  0 C s       :     3.194611  s :     3.194611
      pz      :     0.813149  p :     2.512392
      px      :     0.680591
      py      :     1.018653
  1 C s       :     3.306099  s :     3.306099
      pz      :     0.975532  p :     2.958157
      px      :     1.046523
      py      :     0.936102
  2 C s       :     3.314136  s :     3.314136
      pz      :     0.912221  p :     2.984942
      px      :     1.081991
      py      :     0.990731
  3 C s       :     3.265194  s :     3.265194
      pz      :     0.934961  p :     2.743792
      px      :     1.063472
      py      :     0.745360
  4 O s       :     3.939383  s :     3.939383
      pz      :     1.325854  p :     4.571985
      px      :     1.722060
      py      :     1.524070
  5 H s       :     0.836262  s :     0.836262
  6 H s       :     0.851272  s :     0.851272
  7 H s       :     0.845519  s :     0.845519
  8 H s       :     0.854757  s :     0.854757
  9 H s       :     0.843797  s :     0.843797
 10 H s       :     0.851948  s :     0.851948
 11 H s       :     0.851429  s :     0.851429
 12 C s       :     3.274309  s :     3.274309
      pz      :     0.926218  p :     2.761372
      px      :     0.951675
      py      :     0.883479
 13 H s       :     0.821008  s :     0.821008
 14 H s       :     0.859828  s :     0.859828
 15 O s       :     3.925013  s :     3.925013
      pz      :     1.732758  p :     4.622919
      px      :     1.276595
      py      :     1.613566
 16 C s       :     3.247385  s :     3.247385
      pz      :     0.791357  p :     2.656743
      px      :     0.910457
      py      :     0.954928
 17 C s       :     3.249242  s :     3.249242
      pz      :     0.830705  p :     2.666117
      px      :     1.003849
      py      :     0.831562
 18 C s       :     3.316079  s :     3.316079
      pz      :     0.980630  p :     2.993983
      px      :     1.008873
      py      :     1.004480
 19 C s       :     3.264057  s :     3.264057
      pz      :     0.826267  p :     2.741585
      px      :     1.053065
      py      :     0.862253
 20 O s       :     3.945098  s :     3.945098
      pz      :     1.184343  p :     4.579561
      px      :     1.804874
      py      :     1.590344
 21 H s       :     0.852678  s :     0.852678
 22 H s       :     0.838999  s :     0.838999
 23 O s       :     3.920960  s :     3.920960
      pz      :     1.689843  p :     4.684826
      px      :     1.601649
      py      :     1.393334
 24 H s       :     0.857138  s :     0.857138
 25 H s       :     0.837959  s :     0.837959
 26 H s       :     0.862982  s :     0.862982
 27 H s       :     0.857767  s :     0.857767
 28 H s       :     0.636713  s :     0.636713


                     *******************************
                     * LOEWDIN POPULATION ANALYSIS *
                     *******************************

----------------------
LOEWDIN ATOMIC CHARGES
----------------------
   0 C :    0.176522
   1 C :   -0.215384
   2 C :   -0.216322
   3 C :   -0.028959
   4 O :   -0.323273
   5 H :    0.105236
   6 H :    0.116144
   7 H :    0.122423
   8 H :    0.115650
   9 H :    0.116178
  10 H :    0.105749
  11 H :    0.106011
  12 C :   -0.052181
  13 H :    0.124662
  14 H :    0.105703
  15 O :   -0.347418
  16 C :    0.013648
  17 C :    0.036755
  18 C :   -0.243509
  19 C :   -0.025709
  20 O :   -0.326759
  21 H :    0.113397
  22 H :    0.115560
  23 O :   -0.410928
  24 H :    0.114477
  25 H :    0.119942
  26 H :    0.099199
  27 H :    0.101075
  28 H :    0.282110

-------------------------------
LOEWDIN REDUCED ORBITAL CHARGES
-------------------------------
  0 C s       :     2.954110  s :     2.954110
      pz      :     0.929538  p :     2.869367
      px      :     0.845272
      py      :     1.094557
  1 C s       :     2.975797  s :     2.975797
      pz      :     1.074432  p :     3.239587
      px      :     1.113349
      py      :     1.051806
  2 C s       :     2.970505  s :     2.970505
      pz      :     1.034804  p :     3.245817
      px      :     1.131051
      py      :     1.079961
  3 C s       :     2.985838  s :     2.985838
      pz      :     1.034164  p :     3.043121
      px      :     1.123540
      py      :     0.885418
  4 O s       :     3.602488  s :     3.602488
      pz      :     1.391638  p :     4.720785
      px      :     1.757767
      py      :     1.571380
  5 H s       :     0.894764  s :     0.894764
  6 H s       :     0.883856  s :     0.883856
  7 H s       :     0.877577  s :     0.877577
  8 H s       :     0.884350  s :     0.884350
  9 H s       :     0.883822  s :     0.883822
 10 H s       :     0.894251  s :     0.894251
 11 H s       :     0.893989  s :     0.893989
 12 C s       :     2.982323  s :     2.982323
      pz      :     1.035575  p :     3.069859
      px      :     1.046147
      py      :     0.988137
 13 H s       :     0.875338  s :     0.875338
 14 H s       :     0.894297  s :     0.894297
 15 O s       :     3.585078  s :     3.585078
      pz      :     1.763821  p :     4.762340
      px      :     1.346394
      py      :     1.652126
 16 C s       :     2.961908  s :     2.961908
      pz      :     0.939605  p :     3.024444
      px      :     1.033735
      py      :     1.051104
 17 C s       :     2.952102  s :     2.952102
      pz      :     0.965025  p :     3.011143
      px      :     1.084464
      py      :     0.961653
 18 C s       :     2.983484  s :     2.983484
      pz      :     1.074067  p :     3.260025
      px      :     1.091673
      py      :     1.094285
 19 C s       :     2.982017  s :     2.982017
      pz      :     0.944028  p :     3.043692
      px      :     1.118326
      py      :     0.981338
 20 O s       :     3.599494  s :     3.599494
      pz      :     1.260527  p :     4.727265
      px      :     1.831675
      py      :     1.635063
 21 H s       :     0.886603  s :     0.886603
 22 H s       :     0.884440  s :     0.884440
 23 O s       :     3.609209  s :     3.609209
      pz      :     1.718266  p :     4.801719
      px      :     1.642181
      py      :     1.441272
 24 H s       :     0.885523  s :     0.885523
 25 H s       :     0.880058  s :     0.880058
 26 H s       :     0.900801  s :     0.900801
 27 H s       :     0.898925  s :     0.898925
 28 H s       :     0.717890  s :     0.717890


                      *****************************
                      * MAYER POPULATION ANALYSIS *
                      *****************************

  NA   - Mulliken gross atomic population
  ZA   - Total nuclear charge
  QA   - Mulliken gross atomic charge
  VA   - Mayer's total valence
  BVA  - Mayer's bonded valence
  FA   - Mayer's free valence

  ATOM       NA         ZA         QA         VA         BVA        FA
  0 C      5.7070     6.0000     0.2930     3.6481     3.6481     0.0000
  1 C      6.2643     6.0000    -0.2643     3.7311     3.7311    -0.0000
  2 C      6.2991     6.0000    -0.2991     3.7670     3.7670    -0.0000
  3 C      6.0090     6.0000    -0.0090     3.6591     3.6591    -0.0000
  4 O      8.5114     8.0000    -0.5114     1.7876     1.7876    -0.0000
  5 H      0.8363     1.0000     0.1637     0.9271     0.9271     0.0000
  6 H      0.8513     1.0000     0.1487     0.9329     0.9329     0.0000
  7 H      0.8455     1.0000     0.1545     0.9402     0.9402    -0.0000
  8 H      0.8548     1.0000     0.1452     0.9364     0.9364    -0.0000
  9 H      0.8438     1.0000     0.1562     0.9362     0.9362     0.0000
 10 H      0.8519     1.0000     0.1481     0.9266     0.9266    -0.0000
 11 H      0.8514     1.0000     0.1486     0.9287     0.9287    -0.0000
 12 C      6.0357     6.0000    -0.0357     3.6038     3.6038     0.0000
 13 H      0.8210     1.0000     0.1790     0.9385     0.9385     0.0000
 14 H      0.8598     1.0000     0.1402     0.9381     0.9381    -0.0000
 15 O      8.5479     8.0000    -0.5479     1.7290     1.7290     0.0000
 16 C      5.9041     6.0000     0.0959     3.5627     3.5627     0.0000
 17 C      5.9154     6.0000     0.0846     3.6652     3.6652    -0.0000
 18 C      6.3101     6.0000    -0.3101     3.7198     3.7198     0.0000
 19 C      6.0056     6.0000    -0.0056     3.6700     3.6700     0.0000
 20 O      8.5247     8.0000    -0.5247     1.7694     1.7694    -0.0000
 21 H      0.8527     1.0000     0.1473     0.9313     0.9313     0.0000
 22 H      0.8390     1.0000     0.1610     0.9265     0.9265    -0.0000
 23 O      8.6058     8.0000    -0.6058     1.7527     1.7527    -0.0000
 24 H      0.8571     1.0000     0.1429     0.9366     0.9366    -0.0000
 25 H      0.8380     1.0000     0.1620     0.9519     0.9519    -0.0000
 26 H      0.8630     1.0000     0.1370     0.9277     0.9277    -0.0000
 27 H      0.8578     1.0000     0.1422     0.9270     0.9270    -0.0000
 28 H      0.6367     1.0000     0.3633     0.8354     0.8354     0.0000

  Mayer bond orders larger than 0.100000
B(  0-C ,  1-C ) :   0.9479 B(  0-C ,  4-O ) :   0.9026 B(  0-C ,  5-H ) :   0.9187 
B(  0-C , 15-O ) :   0.8394 B(  1-C ,  2-C ) :   0.9534 B(  1-C ,  6-H ) :   0.9384 
B(  1-C ,  7-H ) :   0.9366 B(  2-C ,  3-C ) :   0.9562 B(  2-C ,  8-H ) :   0.9447 
B(  2-C ,  9-H ) :   0.9455 B(  3-C ,  4-O ) :   0.8318 B(  3-C , 10-H ) :   0.9355 
B(  3-C , 11-H ) :   0.9403 B( 12-C , 13-H ) :   0.9150 B( 12-C , 14-H ) :   0.9180 
B( 12-C , 15-O ) :   0.8262 B( 12-C , 16-C ) :   0.9040 B( 16-C , 17-C ) :   0.8850 
B( 16-C , 20-O ) :   0.8709 B( 16-C , 21-H ) :   0.9261 B( 17-C , 18-C ) :   0.9334 
B( 17-C , 22-H ) :   0.9364 B( 17-C , 23-O ) :   0.9023 B( 18-C , 19-C ) :   0.9448 
B( 18-C , 24-H ) :   0.9411 B( 18-C , 25-H ) :   0.9270 B( 19-C , 20-O ) :   0.8418 
B( 19-C , 26-H ) :   0.9324 B( 19-C , 27-H ) :   0.9382 B( 23-O , 28-H ) :   0.7934 


-------
TIMINGS
-------

Total SCF time: 0 days 0 hours 1 min 33 sec 

Total time                  ....      93.829 sec
Sum of individual times     ....      69.930 sec  ( 74.5%)

Fock matrix formation       ....      62.024 sec  ( 66.1%)
  XC integration            ....      23.801 sec  ( 38.4% of F)
    Basis function eval.    ....       1.603 sec  (  6.7% of XC)
    Density eval.           ....       0.639 sec  (  2.7% of XC)
    XC-Functional eval.     ....       0.347 sec  (  1.5% of XC)
    XC-Potential eval.      ....       0.663 sec  (  2.8% of XC)
Diagonalization             ....       0.968 sec  (  1.0%)
Density matrix formation    ....       0.005 sec  (  0.0%)
Population analysis         ....       0.472 sec  (  0.5%)
Initial guess               ....       0.020 sec  (  0.0%)
Orbital Transformation      ....       0.000 sec  (  0.0%)
Orbital Orthonormalization  ....       0.004 sec  (  0.0%)
DIIS solution               ....       0.002 sec  (  0.0%)
SOSCF solution              ....       0.297 sec  (  0.3%)
Grid generation             ....       6.141 sec  (  6.5%)

-------------------------   --------------------
FINAL SINGLE POINT ENERGY      -652.867520333338
-------------------------   --------------------

                                *** OPTIMIZATION RUN DONE ***

                            ***************************************
                            *     ORCA property calculations      *
                            ***************************************

                                    ---------------------
                                    Active property flags
                                    ---------------------
   (+) Dipole Moment


------------------------------------------------------------------------------
                       ORCA ELECTRIC PROPERTIES CALCULATION
------------------------------------------------------------------------------

Dipole Moment Calculation                       ... on
Quadrupole Moment Calculation                   ... off
Polarizability Calculation                      ... off
GBWName                                         ... project_8049/ensemble_315_240.gbw
Electron density file                           ... project_8049/ensemble_315_240.scfp
The origin for moment calculation is the CENTER OF MASS  = (-42.998385, 49.162420 87.411446)

-------------
DIPOLE MOMENT
-------------
                                X             Y             Z
Electronic contribution:     -2.36549      -4.13350       0.72113
Nuclear contribution   :      3.10779       5.20028      -0.87737
                        -----------------------------------------
Total Dipole Moment    :      0.74231       1.06678      -0.15625
                        -----------------------------------------
Magnitude (a.u.)       :      1.30899
Magnitude (Debye)      :      3.32718



--------------------
Rotational spectrum 
--------------------
 
Rotational constants in cm-1:     0.049259     0.015232     0.014614 
Rotational constants in MHz :  1476.758531   456.639766   438.121179 

 Dipole components along the rotational axes: 
x,y,z [a.u.] :     0.932279     0.107321    -0.912568 
x,y,z [Debye]:     2.369664     0.272789    -2.319565 

 

Timings for individual modules:

Sum of individual times         ...     2390.039 sec (=  39.834 min)
GTO integral calculation        ...      196.861 sec (=   3.281 min)   8.2 %
SCF iterations                  ...     1933.038 sec (=  32.217 min)  80.9 %
SCF Gradient evaluation         ...      212.446 sec (=   3.541 min)   8.9 %
Geometry relaxation             ...       47.694 sec (=   0.795 min)   2.0 %
                             ****ORCA TERMINATED NORMALLY****
TOTAL RUN TIME: 0 days 0 hours 44 minutes 23 seconds 504 msec
