
                                 *****************
                                 * O   R   C   A *
                                 *****************

           --- An Ab Initio, DFT and Semiempirical electronic structure package ---

                  #######################################################
                  #                        -***-                        #
                  #          Department of theory and spectroscopy      #
                  #               Directorship: Frank Neese             #
                  #        Max Planck Institute fuer Kohlenforschung    #
                  #                Kaiser Wilhelm Platz 1               #
                  #                 D-45470 Muelheim/Ruhr               #
                  #                      Germany                        #
                  #                                                     #
                  #                  All rights reserved                #
                  #                        -***-                        #
                  #######################################################


                         Program Version 4.2.0 -  RELEASE  -


 With contributions from (in alphabetic order):
   Daniel Aravena         : Magnetic Suceptibility
   Michael Atanasov       : Ab Initio Ligand Field Theory (pilot matlab implementation)
   Alexander A. Auer      : GIAO ZORA, VPT2
   Ute Becker             : Parallelization
   Giovanni Bistoni       : ED, misc. LED, open-shell LED, HFLED
   Martin Brehm           : Molecular dynamics
   Dmytro Bykov           : SCF Hessian
   Vijay G. Chilkuri      : MRCI spin determinant printing, contributions to CSF-ICE
   Dipayan Datta          : RHF DLPNO-CCSD density
   Achintya Kumar Dutta   : EOM-CC, STEOM-CC
   Dmitry Ganyushin       : Spin-Orbit,Spin-Spin,Magnetic field MRCI
   Miquel Garcia          : C-PCM Hessian, Gaussian charge scheme
   Yang Guo               : DLPNO-NEVPT2, CIM, IAO-localization
   Andreas Hansen         : Spin unrestricted coupled pair/coupled cluster methods
   Benjamin Helmich-Paris : CASSCF linear response (MC-RPA)
   Lee Huntington         : MR-EOM, pCC
   Robert Izsak           : Overlap fitted RIJCOSX, COSX-SCS-MP3, EOM
   Christian Kollmar      : KDIIS, OOCD, Brueckner-CCSD(T), CCSD density
   Simone Kossmann        : Meta GGA functionals, TD-DFT gradient, OOMP2, MP2 Hessian
   Martin Krupicka        : AUTO-CI
   Lucas Lang             : DCDCAS
   Dagmar Lenk            : GEPOL surface, SMD
   Dimitrios Liakos       : Extrapolation schemes; Compound Job, initial MDCI parallelization
   Dimitrios Manganas     : Further ROCIS development; embedding schemes
   Dimitrios Pantazis     : SARC Basis sets
   Taras Petrenko         : DFT Hessian,TD-DFT gradient, ASA, ECA, R-Raman, ABS, FL, XAS/XES, NRVS
   Peter Pinski           : DLPNO-MP2, DLPNO-MP2 Gradient
   Christoph Reimann      : Effective Core Potentials
   Marius Retegan         : Local ZFS, SOC
   Christoph Riplinger    : Optimizer, TS searches, QM/MM, DLPNO-CCSD(T), (RO)-DLPNO pert. Triples
   Tobias Risthaus        : Range-separated hybrids, TD-DFT gradient, RPA, STAB
   Michael Roemelt        : Original ROCIS implementation
   Masaaki Saitow         : Open-shell DLPNO-CCSD energy and density
   Barbara Sandhoefer     : DKH picture change effects
   Avijit Sen             : IP-ROCIS
   Kantharuban Sivalingam : CASSCF convergence, NEVPT2, FIC-MRCI
   Bernardo de Souza      : ESD, SOC TD-DFT
   Georgi Stoychev        : AutoAux, RI-MP2 NMR
   Willem Van den Heuvel  : Paramagnetic NMR
   Boris Wezisla          : Elementary symmetry handling
   Frank Wennmohs         : Technical directorship


 We gratefully acknowledge several colleagues who have allowed us to
 interface, adapt or use parts of their codes:
   Stefan Grimme, W. Hujo, H. Kruse,             : VdW corrections, initial TS optimization,
                  C. Bannwarth                     DFT functionals, gCP, sTDA/sTD-DF
   Ed Valeev, F. Pavosevic, A. Kumar             : LibInt (2-el integral package), F12 methods
   Garnet Chan, S. Sharma, J. Yang, R. Olivares  : DMRG
   Ulf Ekstrom                                   : XCFun DFT Library
   Mihaly Kallay                                 : mrcc  (arbitrary order and MRCC methods)
   Andreas Klamt, Michael Diedenhofen            : otool_cosmo (COSMO solvation model)
   Jiri Pittner, Ondrej Demel                    : Mk-CCSD
   Frank Weinhold                                : gennbo (NPA and NBO analysis)
   Christopher J. Cramer and Donald G. Truhlar   : smd solvation model
   Lars Goerigk                                  : TD-DFT with DH, B97 family of functionals
   V. Asgeirsson, H. Jonsson                     : NEB implementation
   FAccTs GmbH                                   : IRC, NEB, NEB-TS, Multilevel, MM, QM/MM, CI optimization
   S Lehtola, MJT Oliveira, MAL Marques          : LibXC Library


 Your calculation uses the libint2 library for the computation of 2-el integrals
 For citations please refer to: http://libint.valeyev.net

 Your ORCA version has been built with support for libXC version: 4.2.3
 For citations please refer to: https://tddft.org/programs/libxc/

 This ORCA versions uses:
   CBLAS   interface :  Fast vector & matrix operations
   LAPACKE interface :  Fast linear algebra routines
   SCALAPACK package :  Parallel linear algebra routines


----- Orbital basis set information -----
Your calculation utilizes the basis: 6-31G
   H-He, Li-Ne : W. J. Hehre, R. Ditchfield and J.A. Pople, J. Chem. Phys. 56, 2257 (1972).
                 Note: He and Ne are unpublished basis sets taken from the Gaussian program.
                 Note: Li and B from J. D. Dill and J. A. Pople, J. Chem. Phys. 62, 2921 (1975).
   Na - Ar     : M. M. Francl, W. J. Pietro, W. J. Hehre, J. S. Binkley, M. S. Gordon, 
                 D. J. DeFrees and J. A. Pople, J. Chem. Phys. 77, 3654 (1982).
   K - Zn      : V. A. Rassolov, J. A. Pople, M. A. Ratner, and T. L. Windus, J. Chem. Phys. 109, 1223 (1998).

================================================================================
                                        WARNINGS
                       Please study these warnings very carefully!
================================================================================


WARNING: Geometry Optimization
  ===> : Switching off AutoStart
         For restart on a previous wavefunction, please use MOREAD

INFO   : the flag for use of LIBINT has been found!

================================================================================
                                       INPUT FILE
================================================================================
NAME = project_8051/ensemble_150_15.inp
|  1> # Test redundant internal optimization
|  2> #
|  3> ! RKS B3LYP  Opt TightSCF SmallPrint
|  4> 
|  5> %basis
|  6>         Basis "6-31G"
|  7> end
|  8> 
|  9> %geom
| 10> Constraints
| 11> { D 4  0  15  12  150.0   C } # D for Dihedral angle
| 12> { D 0  15  12  16  15.0   C } # D for Dihedral angle
| 13> { D 0  4  3  2   C } # D for Dihedral angle
| 14> { D 4  3  2  1   C } # D for Dihedral angle
| 15> { D 3  2  1  0   C } # D for Dihedral angle
| 16> { D 2  1  0  4   C } # D for Dihedral angle
| 17> { D 1  0  4  3   C } # D for Dihedral angle
| 18> { D 16  20  19  18   C } # D for Dihedral angle
| 19> { D 20  19  18  17   C } # D for Dihedral angle
| 20> { D 19  18  17  16   C } # D for Dihedral angle
| 21> { D 18  17  16  20   C } # D for Dihedral angle
| 22> { D 17  16  20  19   C } # D for Dihedral angle
| 23> { D 15  12  16  20   C } # D for Dihedral angle
| 24> end
| 25> end
| 26> 
| 27> 
| 28> #%pal 
| 29> #nprocs 8
| 30> #end
| 31> 
| 32> * xyz 0 1
| 33> C  -21.048   26.222   46.251
| 34> C  -20.361   27.558   45.944
| 35> C  -20.329   28.222   47.341
| 36> C  -20.110   27.022   48.296
| 37> O  -20.473   25.807   47.535
| 38> H  -20.833   25.428   45.533
| 39> H  -19.344   27.382   45.576
| 40> H  -20.898   28.157   45.201
| 41> H  -19.543   28.978   47.434
| 42> H  -21.289   28.710   47.548
| 43> H  -20.733   27.082   49.195
| 44> H  -19.064   26.913   48.597
| 45> C  -23.210   27.459   45.431
| 46> H  -24.122   27.051   44.979
| 47> H  -23.480   28.360   45.996
| 48> O  -22.586   26.394   46.375
| 49> C  -22.247   27.887   44.290
| 50> C  -21.949   26.717   43.345
| 51> C  -23.224   26.689   42.469
| 52> C  -23.597   28.187   42.343
| 53> O  -22.885   28.891   43.431
| 54> H  -21.362   28.354   44.724
| 55> H  -21.066   26.942   42.736
| 56> O  -21.700   25.378   44.092
| 57> H  -23.059   26.217   41.495
| 58> H  -24.019   26.133   42.980
| 59> H  -24.673   28.361   42.448
| 60> H  -23.258   28.624   41.400
| 61> H  -22.573   25.133   44.708
| 62> *
| 63> 
| 64>                          ****END OF INPUT****
================================================================================

                       *****************************
                       * Geometry Optimization Run *
                       *****************************

Geometry optimization settings:
Update method            Update   .... BFGS
Choice of coordinates    CoordSys .... Z-matrix Internals
Initial Hessian          InHess   .... Almoef's Model

Convergence Tolerances:
Energy Change            TolE     ....  5.0000e-06 Eh
Max. Gradient            TolMAXG  ....  3.0000e-04 Eh/bohr
RMS Gradient             TolRMSG  ....  1.0000e-04 Eh/bohr
Max. Displacement        TolMAXD  ....  4.0000e-03 bohr
RMS Displacement         TolRMSD  ....  2.0000e-03 bohr
Strict Convergence                ....  False
------------------------------------------------------------------------------
                        ORCA OPTIMIZATION COORDINATE SETUP
------------------------------------------------------------------------------

The optimization will be done in new redundant internal coordinates
Making redundant internal coordinates   ...  (new redundants) done
Evaluating the initial hessian          ...  (Almloef) done
Evaluating the coordinates              ...  done
Calculating the B-matrix                .... done
Calculating the G-matrix                .... done
Diagonalizing the G-matrix              .... done
Imposing constraints:
 Iter   0:  RMS(Cart)=    0.0000572936 RMS(Int)=    0.0000847215
 Iter   1:  RMS(Cart)=    0.0000389367 RMS(Int)=    0.0000628181
 Iter   2:  RMS(Cart)=    0.0000281952 RMS(Int)=    0.0000493803
 Iter   3:  RMS(Cart)=    0.0000214444 RMS(Int)=    0.0000400940
 Iter   4:  RMS(Cart)=    0.0000168659 RMS(Int)=    0.0000331052
 Iter   5:  RMS(Cart)=    0.0000135525 RMS(Int)=    0.0000275971
 Iter   6:  RMS(Cart)=    0.0000110386 RMS(Int)=    0.0000231663
 Iter   7:  RMS(Cart)=    0.0000090706 RMS(Int)=    0.0000195776
 Iter   8:  RMS(Cart)=    0.0000074992 RMS(Int)=    0.0000166709
 Iter   9:  RMS(Cart)=    0.0000062288 RMS(Int)=    0.0000143253
 Iter  10:  RMS(Cart)=    0.0000051939 RMS(Int)=    0.0000124436
 Iter  11:  RMS(Cart)=    0.0000043471 RMS(Int)=    0.0000109445
 Iter  12:  RMS(Cart)=    0.0000036523 RMS(Int)=    0.0000097591
 Iter  13:  RMS(Cart)=    0.0000030815 RMS(Int)=    0.0000088280
 Iter  14:  RMS(Cart)=    0.0000026125 RMS(Int)=    0.0000081001
 Iter  15:  RMS(Cart)=    0.0000022273 RMS(Int)=    0.0000075318
 Iter  16:  RMS(Cart)=    0.0000019112 RMS(Int)=    0.0000070870
 Iter  17:  RMS(Cart)=    0.0000016522 RMS(Int)=    0.0000067359
 Iter  18:  RMS(Cart)=    0.0000014403 RMS(Int)=    0.0000064553
 Iter  19:  RMS(Cart)=    0.0000012673 RMS(Int)=    0.0000062271
 Iter  20:  RMS(Cart)=    0.0000011263 RMS(Int)=    0.0000060375
 Iter  21:  RMS(Cart)=    0.0000010113 RMS(Int)=    0.0000058763
 Iter  22:  RMS(Cart)=    0.0000009175 RMS(Int)=    0.0000057362
 Iter  23:  RMS(Cart)=    0.0000008408 RMS(Int)=    0.0000056118
 Iter  24:  RMS(Cart)=    0.0000007779 RMS(Int)=    0.0000054991
 Iter  25:  RMS(Cart)=    0.0000007259 RMS(Int)=    0.0000053954
 Iter  26:  RMS(Cart)=    0.0000006825 RMS(Int)=    0.0000052986
 Iter  27:  RMS(Cart)=    0.0000006460 RMS(Int)=    0.0000052074
 Iter  28:  RMS(Cart)=    0.0000006149 RMS(Int)=    0.0000051207
 Iter  29:  RMS(Cart)=    0.0000005881 RMS(Int)=    0.0000050377
 Iter  30:  RMS(Cart)=    0.0000005646 RMS(Int)=    0.0000049580
 Iter  31:  RMS(Cart)=    0.0000005438 RMS(Int)=    0.0000048810
 Iter  32:  RMS(Cart)=    0.0000005251 RMS(Int)=    0.0000048065
 Iter  33:  RMS(Cart)=    0.0000005082 RMS(Int)=    0.0000047343
 Iter  34:  RMS(Cart)=    0.0000004927 RMS(Int)=    0.0000046642
 Iter  35:  RMS(Cart)=    0.0000004784 RMS(Int)=    0.0000045961
 Iter  36:  RMS(Cart)=    0.0000004650 RMS(Int)=    0.0000045297
 Iter  37:  RMS(Cart)=    0.0000004525 RMS(Int)=    0.0000044651
 Iter  38:  RMS(Cart)=    0.0000004406 RMS(Int)=    0.0000044021
 Iter  39:  RMS(Cart)=    0.0000004294 RMS(Int)=    0.0000043406
 Iter  40:  RMS(Cart)=    0.0000004187 RMS(Int)=    0.0000042806
 Iter  41:  RMS(Cart)=    0.0000004085 RMS(Int)=    0.0000042220
 Iter  42:  RMS(Cart)=    0.0000003988 RMS(Int)=    0.0000041648
 Iter  43:  RMS(Cart)=    0.0000003894 RMS(Int)=    0.0000041090
 Iter  44:  RMS(Cart)=    0.0000003804 RMS(Int)=    0.0000040543
 Iter  45:  RMS(Cart)=    0.0000003717 RMS(Int)=    0.0000040009
 Iter  46:  RMS(Cart)=    0.0000003634 RMS(Int)=    0.0000039486
 Iter  47:  RMS(Cart)=    0.0000003553 RMS(Int)=    0.0000038975
 Iter  48:  RMS(Cart)=    0.0000003475 RMS(Int)=    0.0000038475
 Iter  49:  RMS(Cart)=    0.0000003399 RMS(Int)=    0.0000037984
 Iter  50:  RMS(Cart)=    0.0000003326 RMS(Int)=    0.0000037505
 Iter  51:  RMS(Cart)=    0.0000003255 RMS(Int)=    0.0000037034
 Iter  52:  RMS(Cart)=    0.0000003186 RMS(Int)=    0.0000036573
 Iter  53:  RMS(Cart)=    0.0000003120 RMS(Int)=    0.0000036122
 Iter  54:  RMS(Cart)=    0.0000003055 RMS(Int)=    0.0000035679
 Iter  55:  RMS(Cart)=    0.0000002992 RMS(Int)=    0.0000035244
 Iter  56:  RMS(Cart)=    0.0000002931 RMS(Int)=    0.0000034818
 Iter  57:  RMS(Cart)=    0.0000002872 RMS(Int)=    0.0000034400
 Iter  58:  RMS(Cart)=    0.0000002815 RMS(Int)=    0.0000033989
 Iter  59:  RMS(Cart)=    0.0000002759 RMS(Int)=    0.0000033586
 Iter  60:  RMS(Cart)=    0.0000002704 RMS(Int)=    0.0000033190
 Iter  61:  RMS(Cart)=    0.0000002651 RMS(Int)=    0.0000032801
 Iter  62:  RMS(Cart)=    0.0000002600 RMS(Int)=    0.0000032418
 Iter  63:  RMS(Cart)=    0.0000002550 RMS(Int)=    0.0000032043
 Iter  64:  RMS(Cart)=    0.0000002501 RMS(Int)=    0.0000031673
 Iter  65:  RMS(Cart)=    0.0000002454 RMS(Int)=    0.0000031310
 Iter  66:  RMS(Cart)=    0.0000002408 RMS(Int)=    0.0000030953
 Iter  67:  RMS(Cart)=    0.0000002363 RMS(Int)=    0.0000030602
 Iter  68:  RMS(Cart)=    0.0000002319 RMS(Int)=    0.0000030256
 Iter  69:  RMS(Cart)=    0.0000002277 RMS(Int)=    0.0000029916
 Iter  70:  RMS(Cart)=    0.0000002235 RMS(Int)=    0.0000029581
 Iter  71:  RMS(Cart)=    0.0000002195 RMS(Int)=    0.0000029252
 Iter  72:  RMS(Cart)=    0.0000002156 RMS(Int)=    0.0000028927
 Iter  73:  RMS(Cart)=    0.0000002117 RMS(Int)=    0.0000028608
 Iter  74:  RMS(Cart)=    0.0000002080 RMS(Int)=    0.0000028293
 Iter  75:  RMS(Cart)=    0.0000002044 RMS(Int)=    0.0000027983
 Iter  76:  RMS(Cart)=    0.0000002008 RMS(Int)=    0.0000027677
 Iter  77:  RMS(Cart)=    0.0000001973 RMS(Int)=    0.0000027376
 Iter  78:  RMS(Cart)=    0.0000001940 RMS(Int)=    0.0000027079
 Iter  79:  RMS(Cart)=    0.0000001907 RMS(Int)=    0.0000026787
 Iter  80:  RMS(Cart)=    0.0000001874 RMS(Int)=    0.0000026498
 Iter  81:  RMS(Cart)=    0.0000001843 RMS(Int)=    0.0000026214
 Iter  82:  RMS(Cart)=    0.0000001812 RMS(Int)=    0.0000025933
 Iter  83:  RMS(Cart)=    0.0000001782 RMS(Int)=    0.0000025657
 Iter  84:  RMS(Cart)=    0.0000001753 RMS(Int)=    0.0000025384
 Iter  85:  RMS(Cart)=    0.0000001724 RMS(Int)=    0.0000025115
 Iter  86:  RMS(Cart)=    0.0000001697 RMS(Int)=    0.0000024849
 Iter  87:  RMS(Cart)=    0.0000001669 RMS(Int)=    0.0000024587
 Iter  88:  RMS(Cart)=    0.0000001643 RMS(Int)=    0.0000024328
 Iter  89:  RMS(Cart)=    0.0000001617 RMS(Int)=    0.0000024073
 Iter  90:  RMS(Cart)=    0.0000001591 RMS(Int)=    0.0000023821
 Iter  91:  RMS(Cart)=    0.0000001566 RMS(Int)=    0.0000023572
 Iter  92:  RMS(Cart)=    0.0000001542 RMS(Int)=    0.0000023327
 Iter  93:  RMS(Cart)=    0.0000001518 RMS(Int)=    0.0000023084
 Iter  94:  RMS(Cart)=    0.0000001495 RMS(Int)=    0.0000022845
 Iter  95:  RMS(Cart)=    0.0000001472 RMS(Int)=    0.0000022608
 Iter  96:  RMS(Cart)=    0.0000001450 RMS(Int)=    0.0000022375
 Iter  97:  RMS(Cart)=    0.0000001428 RMS(Int)=    0.0000022144
 Iter  98:  RMS(Cart)=    0.0000001407 RMS(Int)=    0.0000021916
 Iter  99:  RMS(Cart)=    0.0000001386 RMS(Int)=    0.0000021691
 RMS(Cart) too big - taking linear step, building new B-matrix and trying again
Imposing constraints:
 Iter   0:  RMS(Cart)=    0.0000389365 RMS(Int)=    0.0000628180
 Iter   1:  RMS(Cart)=    0.0000281952 RMS(Int)=    0.0000493802
 Iter   2:  RMS(Cart)=    0.0000214445 RMS(Int)=    0.0000400939
 Iter   3:  RMS(Cart)=    0.0000168660 RMS(Int)=    0.0000331051
 Iter   4:  RMS(Cart)=    0.0000135526 RMS(Int)=    0.0000275970
 Iter   5:  RMS(Cart)=    0.0000110387 RMS(Int)=    0.0000231662
 Iter   6:  RMS(Cart)=    0.0000090707 RMS(Int)=    0.0000195775
 Iter   7:  RMS(Cart)=    0.0000074992 RMS(Int)=    0.0000166708
 Iter   8:  RMS(Cart)=    0.0000062288 RMS(Int)=    0.0000143252
 Iter   9:  RMS(Cart)=    0.0000051940 RMS(Int)=    0.0000124435
 Iter  10:  RMS(Cart)=    0.0000043471 RMS(Int)=    0.0000109444
 Iter  11:  RMS(Cart)=    0.0000036523 RMS(Int)=    0.0000097590
 Iter  12:  RMS(Cart)=    0.0000030815 RMS(Int)=    0.0000088279
 Iter  13:  RMS(Cart)=    0.0000026125 RMS(Int)=    0.0000081000
 Iter  14:  RMS(Cart)=    0.0000022273 RMS(Int)=    0.0000075318
 Iter  15:  RMS(Cart)=    0.0000019112 RMS(Int)=    0.0000070869
 Iter  16:  RMS(Cart)=    0.0000016522 RMS(Int)=    0.0000067359
 Iter  17:  RMS(Cart)=    0.0000014403 RMS(Int)=    0.0000064553
 Iter  18:  RMS(Cart)=    0.0000012673 RMS(Int)=    0.0000062270
 Iter  19:  RMS(Cart)=    0.0000011263 RMS(Int)=    0.0000060374
 Iter  20:  RMS(Cart)=    0.0000010113 RMS(Int)=    0.0000058763
 Iter  21:  RMS(Cart)=    0.0000009175 RMS(Int)=    0.0000057362
 Iter  22:  RMS(Cart)=    0.0000008408 RMS(Int)=    0.0000056117
 Iter  23:  RMS(Cart)=    0.0000007779 RMS(Int)=    0.0000054991
 Iter  24:  RMS(Cart)=    0.0000007259 RMS(Int)=    0.0000053953
 Iter  25:  RMS(Cart)=    0.0000006825 RMS(Int)=    0.0000052986
 Iter  26:  RMS(Cart)=    0.0000006460 RMS(Int)=    0.0000052073
 Iter  27:  RMS(Cart)=    0.0000006149 RMS(Int)=    0.0000051206
 Iter  28:  RMS(Cart)=    0.0000005881 RMS(Int)=    0.0000050377
 Iter  29:  RMS(Cart)=    0.0000005646 RMS(Int)=    0.0000049579
 Iter  30:  RMS(Cart)=    0.0000005438 RMS(Int)=    0.0000048809
 Iter  31:  RMS(Cart)=    0.0000005251 RMS(Int)=    0.0000048065
 Iter  32:  RMS(Cart)=    0.0000005082 RMS(Int)=    0.0000047343
 Iter  33:  RMS(Cart)=    0.0000004927 RMS(Int)=    0.0000046642
 Iter  34:  RMS(Cart)=    0.0000004784 RMS(Int)=    0.0000045960
 Iter  35:  RMS(Cart)=    0.0000004650 RMS(Int)=    0.0000045297
 Iter  36:  RMS(Cart)=    0.0000004525 RMS(Int)=    0.0000044650
 Iter  37:  RMS(Cart)=    0.0000004406 RMS(Int)=    0.0000044020
 Iter  38:  RMS(Cart)=    0.0000004294 RMS(Int)=    0.0000043405
 Iter  39:  RMS(Cart)=    0.0000004187 RMS(Int)=    0.0000042806
 Iter  40:  RMS(Cart)=    0.0000004085 RMS(Int)=    0.0000042220
 Iter  41:  RMS(Cart)=    0.0000003988 RMS(Int)=    0.0000041648
 Iter  42:  RMS(Cart)=    0.0000003894 RMS(Int)=    0.0000041089
 Iter  43:  RMS(Cart)=    0.0000003804 RMS(Int)=    0.0000040543
 Iter  44:  RMS(Cart)=    0.0000003717 RMS(Int)=    0.0000040009
 Iter  45:  RMS(Cart)=    0.0000003634 RMS(Int)=    0.0000039486
 Iter  46:  RMS(Cart)=    0.0000003553 RMS(Int)=    0.0000038975
 Iter  47:  RMS(Cart)=    0.0000003475 RMS(Int)=    0.0000038474
 Iter  48:  RMS(Cart)=    0.0000003399 RMS(Int)=    0.0000037984
 Iter  49:  RMS(Cart)=    0.0000003326 RMS(Int)=    0.0000037504
 Iter  50:  RMS(Cart)=    0.0000003255 RMS(Int)=    0.0000037034
 Iter  51:  RMS(Cart)=    0.0000003186 RMS(Int)=    0.0000036573
 Iter  52:  RMS(Cart)=    0.0000003120 RMS(Int)=    0.0000036121
 Iter  53:  RMS(Cart)=    0.0000003055 RMS(Int)=    0.0000035678
 Iter  54:  RMS(Cart)=    0.0000002992 RMS(Int)=    0.0000035244
 Iter  55:  RMS(Cart)=    0.0000002931 RMS(Int)=    0.0000034817
 Iter  56:  RMS(Cart)=    0.0000002872 RMS(Int)=    0.0000034399
 Iter  57:  RMS(Cart)=    0.0000002815 RMS(Int)=    0.0000033988
 Iter  58:  RMS(Cart)=    0.0000002759 RMS(Int)=    0.0000033585
 Iter  59:  RMS(Cart)=    0.0000002704 RMS(Int)=    0.0000033189
 Iter  60:  RMS(Cart)=    0.0000002651 RMS(Int)=    0.0000032800
 Iter  61:  RMS(Cart)=    0.0000002600 RMS(Int)=    0.0000032418
 Iter  62:  RMS(Cart)=    0.0000002550 RMS(Int)=    0.0000032042
 Iter  63:  RMS(Cart)=    0.0000002501 RMS(Int)=    0.0000031673
 Iter  64:  RMS(Cart)=    0.0000002454 RMS(Int)=    0.0000031310
 Iter  65:  RMS(Cart)=    0.0000002408 RMS(Int)=    0.0000030953
 Iter  66:  RMS(Cart)=    0.0000002363 RMS(Int)=    0.0000030601
 Iter  67:  RMS(Cart)=    0.0000002319 RMS(Int)=    0.0000030256
 Iter  68:  RMS(Cart)=    0.0000002277 RMS(Int)=    0.0000029916
 Iter  69:  RMS(Cart)=    0.0000002235 RMS(Int)=    0.0000029581
 Iter  70:  RMS(Cart)=    0.0000002195 RMS(Int)=    0.0000029251
 Iter  71:  RMS(Cart)=    0.0000002156 RMS(Int)=    0.0000028927
 Iter  72:  RMS(Cart)=    0.0000002117 RMS(Int)=    0.0000028607
 Iter  73:  RMS(Cart)=    0.0000002080 RMS(Int)=    0.0000028292
 Iter  74:  RMS(Cart)=    0.0000002044 RMS(Int)=    0.0000027982
 Iter  75:  RMS(Cart)=    0.0000002008 RMS(Int)=    0.0000027677
 Iter  76:  RMS(Cart)=    0.0000001973 RMS(Int)=    0.0000027376
 Iter  77:  RMS(Cart)=    0.0000001940 RMS(Int)=    0.0000027079
 Iter  78:  RMS(Cart)=    0.0000001907 RMS(Int)=    0.0000026786
 Iter  79:  RMS(Cart)=    0.0000001874 RMS(Int)=    0.0000026498
 Iter  80:  RMS(Cart)=    0.0000001843 RMS(Int)=    0.0000026214
 Iter  81:  RMS(Cart)=    0.0000001812 RMS(Int)=    0.0000025933
 Iter  82:  RMS(Cart)=    0.0000001782 RMS(Int)=    0.0000025657
 Iter  83:  RMS(Cart)=    0.0000001753 RMS(Int)=    0.0000025384
 Iter  84:  RMS(Cart)=    0.0000001724 RMS(Int)=    0.0000025114
 Iter  85:  RMS(Cart)=    0.0000001697 RMS(Int)=    0.0000024849
 Iter  86:  RMS(Cart)=    0.0000001669 RMS(Int)=    0.0000024587
 Iter  87:  RMS(Cart)=    0.0000001643 RMS(Int)=    0.0000024328
 Iter  88:  RMS(Cart)=    0.0000001617 RMS(Int)=    0.0000024073
 Iter  89:  RMS(Cart)=    0.0000001591 RMS(Int)=    0.0000023821
 Iter  90:  RMS(Cart)=    0.0000001566 RMS(Int)=    0.0000023572
 Iter  91:  RMS(Cart)=    0.0000001542 RMS(Int)=    0.0000023327
 Iter  92:  RMS(Cart)=    0.0000001518 RMS(Int)=    0.0000023084
 Iter  93:  RMS(Cart)=    0.0000001495 RMS(Int)=    0.0000022845
 Iter  94:  RMS(Cart)=    0.0000001472 RMS(Int)=    0.0000022608
 Iter  95:  RMS(Cart)=    0.0000001450 RMS(Int)=    0.0000022375
 Iter  96:  RMS(Cart)=    0.0000001428 RMS(Int)=    0.0000022144
 Iter  97:  RMS(Cart)=    0.0000001407 RMS(Int)=    0.0000021916
 Iter  98:  RMS(Cart)=    0.0000001386 RMS(Int)=    0.0000021691
 Iter  99:  RMS(Cart)=    0.0000001365 RMS(Int)=    0.0000021469
 RMS(Cart) too big - taking linear step, building new B-matrix and trying again
Imposing constraints:
 Iter   0:  RMS(Cart)=    0.0000281951 RMS(Int)=    0.0000493802
 Iter   1:  RMS(Cart)=    0.0000214445 RMS(Int)=    0.0000400939
 Iter   2:  RMS(Cart)=    0.0000168661 RMS(Int)=    0.0000331050
 Iter   3:  RMS(Cart)=    0.0000135526 RMS(Int)=    0.0000275969
 Iter   4:  RMS(Cart)=    0.0000110387 RMS(Int)=    0.0000231661
 Iter   5:  RMS(Cart)=    0.0000090707 RMS(Int)=    0.0000195774
 Iter   6:  RMS(Cart)=    0.0000074993 RMS(Int)=    0.0000166707
 Iter   7:  RMS(Cart)=    0.0000062289 RMS(Int)=    0.0000143252
 Iter   8:  RMS(Cart)=    0.0000051940 RMS(Int)=    0.0000124434
 Iter   9:  RMS(Cart)=    0.0000043471 RMS(Int)=    0.0000109444
 Iter  10:  RMS(Cart)=    0.0000036523 RMS(Int)=    0.0000097590
CONVERGED
Small eigenvalue found = 2.988e-02
The first mode is                       ....  101
The number of degrees of freedom        ....   81
Storing new coordinates                 .... done

    -----------------------------------------------------------------
                    Redundant Internal Coordinates


    -----------------------------------------------------------------
         Definition                    Initial Value    Approx d2E/dq
    -----------------------------------------------------------------
      1. B(C   1,C   0)                  1.5333         0.369027   
      2. B(C   2,C   1)                  1.5471         0.350825   
      3. B(C   3,C   2)                  1.5492         0.348147   
      4. B(O   4,C   0)                  1.4668         0.422031   
      5. B(O   4,C   3)                  1.4789         0.403699   
      6. B(H   5,C   0)                  1.0919         0.357632   
      7. B(H   6,C   1)                  1.0958         0.352561   
      8. B(H   7,C   1)                  1.0951         0.353431   
      9. B(H   8,C   2)                  1.0945         0.354166   
     10. B(H   9,C   2)                  1.0966         0.351438   
     11. B(H  10,C   3)                  1.0954         0.353010   
     12. B(H  11,C   3)                  1.0939         0.354989   
     13. B(H  13,C  12)                  1.0966         0.351486   
     14. B(H  14,C  12)                  1.0972         0.350654   
     15. B(O  15,C   0)                  1.5526         0.307993   
     16. B(O  15,C  12)                  1.5540         0.306419   
     17. B(C  16,C  12)                  1.5532         0.343053   
     18. B(C  17,C  16)                  1.5332         0.369197   
     19. B(C  18,C  17)                  1.5472         0.350718   
     20. B(C  19,C  18)                  1.5489         0.348551   
     21. B(O  20,C  16)                  1.4673         0.421273   
     22. B(O  20,C  19)                  1.4786         0.404106   
     23. B(H  21,H   7)                  0.6940         0.295306   
     24. B(H  21,C  16)                  1.0908         0.359149   
     25. B(H  22,C  17)                  1.0960         0.352262   
     26. B(O  23,C  17)                  1.5534         0.307074   
     27. B(H  24,C  18)                  1.0948         0.353748   
     28. B(H  25,C  18)                  1.0965         0.351621   
     29. B(H  26,C  19)                  1.0950         0.353515   
     30. B(H  27,C  19)                  1.0932         0.355860   
     31. B(H  28,O  23)                  1.0962         0.315283   
     32. A(C   1,C   0,O   4)          104.2526         0.367935   
     33. A(O   4,C   0,H   5)          107.0201         0.328541   
     34. A(C   1,C   0,H   5)          114.4343         0.323302   
     35. A(H   5,C   0,O  15)          109.1548         0.312058   
     36. A(C   1,C   0,O  15)          111.3061         0.348740   
     37. A(O   4,C   0,O  15)          110.4733         0.354548   
     38. A(C   0,C   1,H   6)          110.0680         0.322546   
     39. A(C   2,C   1,H   6)          110.6705         0.319888   
     40. A(C   2,C   1,H   7)          112.8357         0.320016   
     41. A(C   0,C   1,H   7)          113.1208         0.322677   
     42. A(C   0,C   1,C   2)          101.6789         0.358729   
     43. A(H   6,C   1,H   7)          108.3684         0.289027   
     44. A(C   1,C   2,C   3)          103.1271         0.355196   
     45. A(C   1,C   2,H   8)          112.8317         0.320125   
     46. A(C   1,C   2,H   9)          110.0798         0.319721   
     47. A(C   3,C   2,H   8)          112.4045         0.319725   
     48. A(C   3,C   2,H   9)          110.6143         0.319321   
     49. A(H   8,C   2,H   9)          107.7729         0.288977   
     50. A(O   4,C   3,H  10)          109.1301         0.325449   
     51. A(H  10,C   3,H  11)          108.8727         0.289284   
     52. A(C   2,C   3,H  10)          112.5251         0.319554   
     53. A(C   2,C   3,O   4)          106.5269         0.361529   
     54. A(O   4,C   3,H  11)          107.1238         0.325748   
     55. A(C   2,C   3,H  11)          112.4571         0.319846   
     56. A(C   0,O   4,C   3)          108.3117         0.371320   
     57. A(C   1,H   7,H  21)          161.7066         0.242655   
     58. A(H  14,C  12,C  16)          107.7425         0.318438   
     59. A(H  13,C  12,O  15)          109.2310         0.310927   
     60. A(H  14,C  12,O  15)          110.4140         0.310808   
     61. A(H  13,C  12,H  14)          108.2469         0.288532   
     62. A(H  13,C  12,C  16)          108.3741         0.318561   
     63. A(O  15,C  12,C  16)          112.7123         0.344189   
     64. A(C   0,O  15,C  12)          115.1648         0.335988   
     65. A(C  12,C  16,O  20)          110.4297         0.363254   
     66. A(C  17,C  16,O  20)          104.2326         0.367851   
     67. A(C  12,C  16,H  21)          109.1841         0.319685   
     68. A(C  17,C  16,H  21)          114.4808         0.323551   
     69. A(C  12,C  16,C  17)          111.2878         0.357393   
     70. A(O  20,C  16,H  21)          107.0205         0.328673   
     71. A(C  16,C  17,C  18)          101.6893         0.358738   
     72. A(C  16,C  17,H  22)          110.0242         0.322526   
     73. A(C  18,C  17,H  22)          110.6724         0.319827   
     74. A(C  16,C  17,O  23)          113.1136         0.348592   
     75. A(C  18,C  17,O  23)          112.8792         0.345592   
     76. A(H  22,C  17,O  23)          108.3626         0.311145   
     77. A(C  17,C  18,C  19)          103.1211         0.355248   
     78. A(C  17,C  18,H  24)          112.7868         0.320047   
     79. A(C  19,C  18,H  24)          112.3879         0.319723   
     80. A(C  17,C  18,H  25)          110.0479         0.319732   
     81. A(C  19,C  18,H  25)          110.7154         0.319409   
     82. A(H  24,C  18,H  25)          107.7737         0.288947   
     83. A(H  26,C  19,H  27)          108.8989         0.289460   
     84. A(C  18,C  19,O  20)          106.5390         0.361663   
     85. A(C  18,C  19,H  26)          112.4895         0.319689   
     86. A(O  20,C  19,H  26)          109.0838         0.325579   
     87. A(C  18,C  19,H  27)          112.4638         0.320035   
     88. A(O  20,C  19,H  27)          107.1616         0.325933   
     89. A(C  16,O  20,C  19)          108.3213         0.371270   
     90. A(H   7,H  21,C  16)          133.9894         0.243214   
     91. A(C  17,O  23,H  28)          109.5870         0.303113   
     92. D(H   7,C   1,C   0,O   4)   -161.2911         0.010890   
     93. D(C   2,C   1,C   0,O  15)     79.0904         0.010890   
     94. D(H   6,C   1,C   0,H   5)    -39.2344         0.010890   
     95. D(H   6,C   1,C   0,O   4)     77.3247         0.010890   
     96. D(C   2,C   1,C   0,H   5)   -156.5743         0.010890   
     97. D(H   6,C   1,C   0,O  15)   -163.5697         0.010890   
     98. D(H   7,C   1,C   0,H   5)     82.1497         0.010890   
     99. D(C   2,C   1,C   0,O   4)    -40.0151         0.010890 C 
    100. D(H   7,C   1,C   0,O  15)    -42.1856         0.010890   
    101. D(C   3,C   2,C   1,C   0)     35.0266         0.009912 C 
    102. D(C   3,C   2,C   1,H   6)    -81.8765         0.009912   
    103. D(C   3,C   2,C   1,H   7)    156.5008         0.009912   
    104. D(H   8,C   2,C   1,C   0)    156.5485         0.009912   
    105. D(H   8,C   2,C   1,H   6)     39.6454         0.009912   
    106. D(H   8,C   2,C   1,H   7)    -81.9773         0.009912   
    107. D(H   9,C   2,C   1,C   0)    -83.0186         0.009912   
    108. D(H   9,C   2,C   1,H   6)    160.0783         0.009912   
    109. D(H   9,C   2,C   1,H   7)     38.4557         0.009912   
    110. D(O   4,C   3,C   2,C   1)    -18.1963         0.009774 C 
    111. D(H  10,C   3,C   2,H   9)    -20.0726         0.009774   
    112. D(H  11,C   3,C   2,C   1)     98.8670         0.009774   
    113. D(H  10,C   3,C   2,C   1)   -137.7428         0.009774   
    114. D(O   4,C   3,C   2,H   9)     99.4738         0.009774   
    115. D(H  11,C   3,C   2,H   8)    -22.9435         0.009774   
    116. D(H  10,C   3,C   2,H   8)    100.4467         0.009774   
    117. D(O   4,C   3,C   2,H   8)   -140.0068         0.009774   
    118. D(H  11,C   3,C   2,H   9)   -143.4628         0.009774   
    119. D(C   3,O   4,C   0,H   5)    151.1993         0.014035   
    120. D(C   3,O   4,C   0,C   1)     29.5922         0.014035 C 
    121. D(C   0,O   4,C   3,C   2)     -6.8724         0.012866 C 
    122. D(C   3,O   4,C   0,O  15)    -90.0778         0.014035   
    123. D(C   0,O   4,C   3,H  10)    114.8550         0.012866   
    124. D(C   0,O   4,C   3,H  11)   -127.4267         0.012866   
    125. D(H  21,H   7,C   1,C   0)     -5.1497         0.116072   
    126. D(H  21,H   7,C   1,C   2)   -119.8970         0.116072   
    127. D(H  21,H   7,C   1,H   6)    117.1877         0.116072   
    128. D(C  12,O  15,C   0,C   1)     34.6785         0.007793   
    129. D(C  12,O  15,C   0,H   5)    -92.5853         0.007793   
    130. D(C  12,O  15,C   0,O   4)    149.9993         0.007793 C 
    131. D(C   0,O  15,C  12,H  14)   -105.5501         0.007724   
    132. D(C   0,O  15,C  12,H  13)    135.5245         0.007724   
    133. D(C   0,O  15,C  12,C  16)     14.9987         0.007724 C 
    134. D(C  17,C  16,C  12,H  13)    -56.2823         0.009514   
    135. D(C  17,C  16,C  12,H  14)   -173.1983         0.009514   
    136. D(C  17,C  16,C  12,O  15)     64.7335         0.009514   
    137. D(O  20,C  16,C  12,H  13)     58.9766         0.009514   
    138. D(O  20,C  16,C  12,H  14)    -57.9394         0.009514   
    139. D(O  20,C  16,C  12,O  15)    179.9924         0.009514 C 
    140. D(H  21,C  16,C  12,H  13)    176.3847         0.009514   
    141. D(H  21,C  16,C  12,H  14)     59.4687         0.009514   
    142. D(H  21,C  16,C  12,O  15)    -62.5995         0.009514   
    143. D(C  18,C  17,C  16,C  12)     79.0399         0.010899   
    144. D(O  23,C  17,C  16,O  20)   -161.3239         0.010899   
    145. D(C  18,C  17,C  16,H  21)   -156.5637         0.010899   
    146. D(H  22,C  17,C  16,C  12)   -163.6311         0.010899   
    147. D(H  22,C  17,C  16,O  20)     77.3360         0.010899   
    148. D(H  22,C  17,C  16,H  21)    -39.2348         0.010899   
    149. D(C  18,C  17,C  16,O  20)    -39.9929         0.010899 C 
    150. D(O  23,C  17,C  16,C  12)    -42.2911         0.010899   
    151. D(O  23,C  17,C  16,H  21)     82.1053         0.010899   
    152. D(C  19,C  18,C  17,C  16)     35.0538         0.009907 C 
    153. D(C  19,C  18,C  17,H  22)    -81.8053         0.009907   
    154. D(C  19,C  18,C  17,O  23)    156.5477         0.009907   
    155. D(H  24,C  18,C  17,C  16)    156.5279         0.009907   
    156. D(H  24,C  18,C  17,H  22)     39.6689         0.009907   
    157. D(H  24,C  18,C  17,O  23)    -81.9782         0.009907   
    158. D(H  25,C  18,C  17,C  16)    -83.0907         0.009907   
    159. D(H  25,C  18,C  17,H  22)    160.0503         0.009907   
    160. D(H  25,C  18,C  17,O  23)     38.4032         0.009907   
    161. D(O  20,C  19,C  18,C  17)    -18.2438         0.009795 C 
    162. D(O  20,C  19,C  18,H  24)   -139.9876         0.009795   
    163. D(O  20,C  19,C  18,H  25)     99.4325         0.009795   
    164. D(H  26,C  19,C  18,C  17)   -137.7207         0.009795   
    165. D(H  26,C  19,C  18,H  24)    100.5355         0.009795   
    166. D(H  26,C  19,C  18,H  25)    -20.0445         0.009795   
    167. D(H  27,C  19,C  18,C  17)     98.8765         0.009795   
    168. D(H  27,C  19,C  18,H  24)    -22.8673         0.009795   
    169. D(H  27,C  19,C  18,H  25)   -143.4473         0.009795   
    170. D(C  19,O  20,C  16,C  12)    -90.0737         0.013986   
    171. D(C  19,O  20,C  16,C  17)     29.5413         0.013986 C 
    172. D(C  19,O  20,C  16,H  21)    151.1920         0.013986   
    173. D(C  16,O  20,C  19,C  18)     -6.8117         0.012891 C 
    174. D(C  16,O  20,C  19,H  26)    114.8542         0.012891   
    175. D(C  16,O  20,C  19,H  27)   -127.4002         0.012891   
    176. D(C  16,H  21,H   7,C   1)      2.2189         3.646144   
    177. D(H   7,H  21,C  16,C  12)     54.2616         0.120690   
    178. D(H   7,H  21,C  16,C  17)    -71.2444         0.120690   
    179. D(H   7,H  21,C  16,O  20)    173.8008         0.120690   
    180. D(H  28,O  23,C  17,C  16)     57.7645         0.007753   
    181. D(H  28,O  23,C  17,C  18)    -57.0202         0.007753   
    182. D(H  28,O  23,C  17,H  22)   -179.9627         0.007753   
    -----------------------------------------------------------------

Number of atoms                         .... 29
Number of degrees of freedom            .... 182

Time needed for optimization step       :     2.91 sec

         *************************************************************
         *                GEOMETRY OPTIMIZATION CYCLE   1            *
         *************************************************************
---------------------------------
CARTESIAN COORDINATES (ANGSTROEM)
---------------------------------
  C    -21.047796   26.222061   46.251030
  C    -20.360902   27.558055   45.944087
  C    -20.329048   28.222056   47.341089
  C    -20.110032   27.022058   48.296105
  O    -20.472889   25.807035   47.535058
  H    -20.832648   25.428132   45.532995
  H    -19.343863   27.382132   45.576158
  H    -20.897925   28.156950   45.201019
  H    -19.543119   28.978122   47.434143
  H    -21.289104   28.709973   47.548027
  H    -20.733108   27.082010   49.195055
  H    -19.064049   26.913127   48.597188
  C    -23.209871   27.458994   45.431007
  H    -24.121872   27.051051   44.978956
  H    -23.479874   28.359931   45.996106
  O    -22.585842   26.393867   46.374867
  C    -22.246964   27.886864   44.289908
  C    -21.949122   26.716853   43.344877
  C    -23.224161   26.689013   42.468934
  C    -23.597007   28.187062   42.342989
  O    -22.884886   28.890967   43.430978
  H    -21.361936   28.353874   44.723972
  H    -21.066132   26.941778   42.735835
  O    -21.700210   25.377817   44.091841
  H    -23.059254   26.217021   41.494914
  H    -24.019199   26.133085   42.979953
  H    -24.672984   28.361172   42.448041
  H    -23.258001   28.624051   41.399986
  H    -22.573202   25.132888   44.707881

----------------------------
CARTESIAN COORDINATES (A.U.)
----------------------------
  NO LB      ZA    FRAG     MASS         X           Y           Z
   0 C     6.0000    0    12.011  -39.774571   49.552513   87.401780
   1 C     6.0000    0    12.011  -38.476528   52.077177   86.821741
   2 C     6.0000    0    12.011  -38.416334   53.331956   89.461693
   3 C     6.0000    0    12.011  -38.002453   51.064290   91.266411
   4 O     8.0000    0    15.999  -38.688153   48.768228   89.828242
   5 H     1.0000    0     1.008  -39.368000   48.052205   86.044891
   6 H     1.0000    0     1.008  -36.554603   51.744731   86.126457
   7 H     1.0000    0     1.008  -39.491355   53.208923   85.417547
   8 H     1.0000    0     1.008  -36.931143   54.760715   89.637540
   9 H     1.0000    0     1.008  -40.230575   54.253987   89.852750
  10 H     1.0000    0     1.008  -39.179895   51.177583   92.965182
  11 H     1.0000    0     1.008  -36.025831   50.858440   91.835376
  12 C     6.0000    0    12.011  -43.860301   51.889979   85.852160
  13 H     1.0000    0     1.008  -45.583732   51.119079   84.997908
  14 H     1.0000    0     1.008  -44.370531   53.592502   86.920044
  15 O     8.0000    0    15.999  -42.681056   49.877180   87.635799
  16 C     6.0000    0    12.011  -42.040669   52.698535   83.695796
  17 C     6.0000    0    12.011  -41.477829   50.487536   81.909948
  18 C     6.0000    0    12.011  -43.887304   50.434926   80.254654
  19 C     6.0000    0    12.011  -44.591880   53.265828   80.016654
  20 O     8.0000    0    15.999  -43.246168   54.596016   82.072654
  21 H     1.0000    0     1.008  -40.368209   53.581057   84.516058
  22 H     1.0000    0     1.008  -39.809220   50.912582   80.759025
  23 O     8.0000    0    15.999  -41.007454   47.957123   83.321505
  24 H     1.0000    0     1.008  -43.575675   49.542990   78.414023
  25 H     1.0000    0     1.008  -45.389708   49.384374   81.220341
  26 H     1.0000    0     1.008  -46.625182   53.594849   80.215172
  27 H     1.0000    0     1.008  -43.951253   54.091617   78.234635
  28 H     1.0000    0     1.008  -42.657170   47.494276   84.485652

--------------------------------
INTERNAL COORDINATES (ANGSTROEM)
--------------------------------
 C      0   0   0     0.000000000000     0.00000000     0.00000000
 C      1   0   0     1.533334275362     0.00000000     0.00000000
 C      2   1   0     1.547103422529   101.67907390     0.00000000
 C      3   2   1     1.549188819996   103.12737509    35.02687180
 O      1   2   3     1.466801281701   104.24948604   319.98542309
 H      1   2   3     1.091872245274   114.43876658   203.42640133
 H      2   1   3     1.095759553917   110.06782188   117.34000099
 H      2   1   3     1.095088580892   113.12442239   238.72597460
 H      3   2   1     1.094523183857   112.83161078   156.54780790
 H      3   2   1     1.096628013503   110.07982737   276.98070077
 H      4   3   2     1.095413164062   112.52534669   222.25678475
 H      4   3   2     1.093891219455   112.45670684    98.86663270
 C      8   2   1     2.425994229177   104.21889074    27.16777129
 H     13   8   2     1.096591081488   149.37951336   236.48860731
 H     13   8   2     1.097235617358    92.69784383   102.45871854
 O      1   2   3     1.552547583812   111.30349807    79.08752829
 C     13   8   2     1.553201210404    42.28513712   216.12181062
 C     17  13   8     1.533208726821   111.28500187   112.94928597
 C     18  17  13     1.547186155574   101.68979413    79.03596961
 C     19  18  17     1.548873461584   103.12113205    35.05406949
 O     17  13   8     1.467290359813   110.42796004   228.20378488
 H      8   2   1     0.693998559076   161.70677901   354.84734758
 H     18  17  13     1.095990419666   110.02411265   196.36586679
 O     18  17  13     1.553361194314   113.11350562   317.70589844
 H     19  18  17     1.094844737851   112.78683795   156.52817393
 H     19  18  17     1.096486206024   110.04783322   276.90960422
 H     20  19  18     1.095023744035   112.48970851   222.27931534
 H     20  19  18     1.093224130725   112.46382673    98.87641803
 H     24  18  17     1.096179729789   109.58697979    57.76454086

---------------------------
INTERNAL COORDINATES (A.U.)
---------------------------
 C      0   0   0     0.000000000000     0.00000000     0.00000000
 C      1   0   0     2.897581852189     0.00000000     0.00000000
 C      2   1   0     2.923601769431   101.67907390     0.00000000
 C      3   2   1     2.927542599525   103.12737509    35.02687180
 O      1   2   3     2.771852715300   104.24948604   319.98542309
 H      1   2   3     2.063339516798   114.43876658   203.42640133
 H      2   1   3     2.070685465531   110.06782188   117.34000099
 H      2   1   3     2.069417510270   113.12442239   238.72597460
 H      3   2   1     2.068349064717   112.83161078   156.54780790
 H      3   2   1     2.072326616307   110.07982737   276.98070077
 H      4   3   2     2.070030883569   112.52534669   222.25678475
 H      4   3   2     2.067154825070   112.45670684    98.86663270
 C      8   2   1     4.584464695618   104.21889074    27.16777129
 H     13   8   2     2.072256824914   149.37951336   236.48860731
 H     13   8   2     2.073474821192    92.69784383   102.45871854
 O      1   2   3     2.933889743286   111.30349807    79.08752829
 C     13   8   2     2.935124918538    42.28513712   216.12181062
 C     17  13   8     2.897344599830   111.28500187   112.94928597
 C     18  17  13     2.923758112229   101.68979413    79.03596961
 C     19  18  17     2.926946658493   103.12113205    35.05406949
 O     17  13   8     2.772776938989   110.42796004   228.20378488
 H      8   2   1     1.311467213990   161.70677901   354.84734758
 H     18  17  13     2.071121738570   110.02411265   196.36586679
 O     18  17  13     2.935427244314   113.11350562   317.70589844
 H     19  18  17     2.068956713703   112.78683795   156.52817393
 H     19  18  17     2.072058639007   110.04783322   276.90960422
 H     20  19  18     2.069294986367   112.48970851   222.27931534
 H     20  19  18     2.065894210065   112.46382673    98.87641803
 H     24  18  17     2.071479482857   109.58697979    57.76454086

---------------------
BASIS SET INFORMATION
---------------------
There are 3 groups of distinct atoms

 Group   1 Type C   : 10s4p contracted to 3s2p pattern {631/31}
 Group   2 Type O   : 10s4p contracted to 3s2p pattern {631/31}
 Group   3 Type H   : 4s contracted to 2s pattern {31}

Atom   0C    basis set group =>   1
Atom   1C    basis set group =>   1
Atom   2C    basis set group =>   1
Atom   3C    basis set group =>   1
Atom   4O    basis set group =>   2
Atom   5H    basis set group =>   3
Atom   6H    basis set group =>   3
Atom   7H    basis set group =>   3
Atom   8H    basis set group =>   3
Atom   9H    basis set group =>   3
Atom  10H    basis set group =>   3
Atom  11H    basis set group =>   3
Atom  12C    basis set group =>   1
Atom  13H    basis set group =>   3
Atom  14H    basis set group =>   3
Atom  15O    basis set group =>   2
Atom  16C    basis set group =>   1
Atom  17C    basis set group =>   1
Atom  18C    basis set group =>   1
Atom  19C    basis set group =>   1
Atom  20O    basis set group =>   2
Atom  21H    basis set group =>   3
Atom  22H    basis set group =>   3
Atom  23O    basis set group =>   2
Atom  24H    basis set group =>   3
Atom  25H    basis set group =>   3
Atom  26H    basis set group =>   3
Atom  27H    basis set group =>   3
Atom  28H    basis set group =>   3
------------------------------------------------------------------------------
                           ORCA GTO INTEGRAL CALCULATION
------------------------------------------------------------------------------

                         BASIS SET STATISTICS AND STARTUP INFO

 # of primitive gaussian shells          ...  246
 # of primitive gaussian functions       ...  350
 # of contracted shells                  ...   97
 # of contracted basis functions         ...  149
 Highest angular momentum                ...    1
 Maximum contraction depth               ...    6
 Integral package used                   ... LIBINT
 Integral threshhold            Thresh   ...  2.500e-11
 Primitive cut-off              TCut     ...  2.500e-12


------------------------------ INTEGRAL EVALUATION ----------------------------


 * One electron integrals 
 Pre-screening matrix                    ... done
 Shell pair data                         ... done (   0.002 sec)

-------------------------------------------------------------------------------
                                 ORCA SCF
-------------------------------------------------------------------------------

------------
SCF SETTINGS
------------
Hamiltonian:
 Density Functional     Method          .... DFT(GTOs)
 Exchange Functional    Exchange        .... B88
   X-Alpha parameter    XAlpha          ....  0.666667
   Becke's b parameter  XBeta           ....  0.004200
 Correlation Functional Correlation     .... LYP
 LDA part of GGA corr.  LDAOpt          .... VWN-5
 Gradients option       PostSCFGGA      .... off
 Hybrid DFT is turned on
   Fraction HF Exchange ScalHFX         ....  0.200000
   Scaling of DF-GGA-X  ScalDFX         ....  0.720000
   Scaling of DF-GGA-C  ScalDFC         ....  0.810000
   Scaling of DF-LDA-C  ScalLDAC        ....  1.000000
   Perturbative correction              ....  0.000000
   Density functional embedding theory  .... OFF
   NL short-range parameter             ....  4.800000


General Settings:
 Integral files         IntName         .... project_8051/ensemble_150_15
 Hartree-Fock type      HFTyp           .... RHF
 Total Charge           Charge          ....    0
 Multiplicity           Mult            ....    1
 Number of Electrons    NEL             ....  102
 Basis Dimension        Dim             ....  149
 Nuclear Repulsion      ENuc            ....    916.8669869342 Eh

Convergence Acceleration:
 DIIS                   CNVDIIS         .... on
   Start iteration      DIISMaxIt       ....    12
   Startup error        DIISStart       ....  0.200000
   # of expansion vecs  DIISMaxEq       ....     5
   Bias factor          DIISBfac        ....   1.050
   Max. coefficient     DIISMaxC        ....  10.000
 Newton-Raphson         CNVNR           .... off
 SOSCF                  CNVSOSCF        .... on
   Start iteration      SOSCFMaxIt      ....   150
   Startup grad/error   SOSCFStart      ....  0.003300
 Level Shifting         CNVShift        .... on
   Level shift para.    LevelShift      ....    0.2500
   Turn off err/grad.   ShiftErr        ....    0.0010
 Zerner damping         CNVZerner       .... off
 Static damping         CNVDamp         .... on
   Fraction old density DampFac         ....    0.7000
   Max. Damping (<1)    DampMax         ....    0.9800
   Min. Damping (>=0)   DampMin         ....    0.0000
   Turn off err/grad.   DampErr         ....    0.1000
 Fernandez-Rico         CNVRico         .... off

SCF Procedure:
 Maximum # iterations   MaxIter         ....   125
 SCF integral mode      SCFMode         .... Direct
   Integral package                     .... LIBINT
 Reset frequency        DirectResetFreq ....    20
 Integral Threshold     Thresh          ....  2.500e-11 Eh
 Primitive CutOff       TCut            ....  2.500e-12 Eh

Convergence Tolerance:
 Convergence Check Mode ConvCheckMode   .... Total+1el-Energy
 Convergence forced     ConvForced      .... 0
 Energy Change          TolE            ....  1.000e-08 Eh
 1-El. energy change                    ....  1.000e-05 Eh
 Orbital Gradient       TolG            ....  1.000e-05
 Orbital Rotation angle TolX            ....  1.000e-05
 DIIS Error             TolErr          ....  5.000e-07


Diagonalization of the overlap matrix:
Smallest eigenvalue                        ... 1.273e-03
Time for diagonalization                   ...    0.005 sec
Threshold for overlap eigenvalues          ... 1.000e-08
Number of eigenvalues below threshold      ... 0
Time for construction of square roots      ...    0.252 sec
Total time needed                          ...    0.258 sec

-------------------
DFT GRID GENERATION
-------------------

General Integration Accuracy     IntAcc      ...  4.340
Radial Grid Type                 RadialGrid  ... Gauss-Chebyshev
Angular Grid (max. acc.)         AngularGrid ... Lebedev-110
Angular grid pruning method      GridPruning ... 3 (G Style)
Weight generation scheme         WeightScheme... Becke
Basis function cutoff            BFCut       ...    1.0000e-11
Integration weight cutoff        WCut        ...    1.0000e-14
Grids for H and He will be reduced by one unit

# of grid points (after initial pruning)     ...  34472 (   0.0 sec)
# of grid points (after weights+screening)   ...  30739 (   0.2 sec)
nearest neighbour list constructed           ...    0.0 sec
Grid point re-assignment to atoms done       ...    0.0 sec
Grid point division into batches done        ...    0.0 sec
Reduced shell lists constructed in    0.4 sec

Total number of grid points                  ...    30739
Total number of batches                      ...      494
Average number of points per batch           ...       62
Average number of grid points per atom       ...     1060
Average number of shells per batch           ...    63.08 (65.03%)
Average number of basis functions per batch  ...   102.32 (68.67%)
Average number of large shells per batch     ...    46.00 (72.93%)
Average number of large basis fcns per batch ...    76.11 (74.39%)
Maximum spatial batch extension              ...  21.30, 21.73, 18.90 au
Average spatial batch extension              ...   3.22,  3.39,  3.24 au

Time for grid setup =    6.175 sec

------------------------------
INITIAL GUESS: MODEL POTENTIAL
------------------------------
Loading Hartree-Fock densities                     ... done
Calculating cut-offs                               ... done
Setting up the integral package                    ... done
Initializing the effective Hamiltonian             ... done
Starting the Coulomb interaction                   ... done (   0.4 sec)
Reading the grid                                   ... done
Mapping shells                                     ... done
Starting the XC term evaluation                    ... done (   0.6 sec)
  promolecular density results
     # of electrons  =    101.992676456
     EX              =    -83.775601737
     EC              =     -3.481505706
     EX+EC           =    -87.257107443
Transforming the Hamiltonian                       ... done (   0.2 sec)
Diagonalizing the Hamiltonian                      ... done (   0.0 sec)
Back transforming the eigenvectors                 ... done (   0.0 sec)
Now organizing SCF variables                       ... done
                      ------------------
                      INITIAL GUESS DONE (   9.6 sec)
                      ------------------
--------------
SCF ITERATIONS
--------------
ITER       Energy         Delta-E        Max-DP      RMS-DP      [F,P]     Damp
               ***  Starting incremental Fock matrix formation  ***
  0   -652.3806569549   0.000000000000 0.07274736  0.00302806  0.2276670 0.7000
  1   -652.5104022823  -0.129745327436 0.05321552  0.00211399  0.0931516 0.7000
                               ***Turning on DIIS***
  2   -652.5607604063  -0.050358124014 0.08160581  0.00353564  0.0315699 0.0000
  3   -652.6438385461  -0.083078139720 0.03286997  0.00137065  0.0471053 0.0000
  4   -652.6597391101  -0.015900564006 0.00853469  0.00043913  0.0089408 0.0000
  5   -652.6606122545  -0.000873144406 0.00266814  0.00014245  0.0038024 0.0000
                      *** Initiating the SOSCF procedure ***
                           *** Shutting down DIIS ***
                      *** Re-Reading the Fockian *** 
                      *** Removing any level shift *** 
ITER      Energy       Delta-E        Grad      Rot      Max-DP    RMS-DP
  6   -652.66068474  -0.0000724873  0.000126  0.000126  0.001937  0.000062
               *** Restarting incremental Fock matrix formation ***
  7   -652.66068795  -0.0000032109  0.000106  0.000221  0.001172  0.000037
  8   -652.66068654   0.0000014161  0.000152  0.000133  0.000741  0.000022
  9   -652.66068933  -0.0000027919  0.000024  0.000026  0.000154  0.000005
 10   -652.66068928   0.0000000480  0.000036  0.000019  0.000098  0.000003
                  ***Gradient check signals convergence***
              ***Rediagonalizing the Fockian in SOSCF/NRSCF***

               *****************************************************
               *                     SUCCESS                       *
               *           SCF CONVERGED AFTER  11 CYCLES          *
               *****************************************************

Setting up the final grid:

General Integration Accuracy     IntAcc      ...  4.670
Radial Grid Type                 RadialGrid  ... Gauss-Chebyshev
Angular Grid (max. acc.)         AngularGrid ... Lebedev-302
Angular grid pruning method      GridPruning ... 3 (G Style)
Weight generation scheme         WeightScheme... Becke
Basis function cutoff            BFCut       ...    1.0000e-11
Integration weight cutoff        WCut        ...    1.0000e-14
Grids for H and He will be reduced by one unit

# of grid points (after initial pruning)     ... 135060 (   0.1 sec)
# of grid points (after weights+screening)   ... 117711 (   0.8 sec)
nearest neighbour list constructed           ...    0.0 sec
Grid point re-assignment to atoms done       ...    0.0 sec
Grid point division into batches done        ...    0.6 sec
Reduced shell lists constructed in    1.8 sec

Total number of grid points                  ...   117711
Total number of batches                      ...     1854
Average number of points per batch           ...       63
Average number of grid points per atom       ...     4059
Average number of shells per batch           ...    58.04 (59.83%)
Average number of basis functions per batch  ...    94.38 (63.34%)
Average number of large shells per batch     ...    41.31 (71.18%)
Average number of large basis fcns per batch ...    68.57 (72.66%)
Maximum spatial batch extension              ...  20.53, 20.86, 17.79 au
Average spatial batch extension              ...   2.18,  2.27,  2.21 au

Final grid set up in    6.1 sec
Final integration                            ... done (   9.3 sec)
Change in XC energy                          ...     0.000185108
Integrated number of electrons               ...   102.000547036
Previous integrated no of electrons          ...   102.001987324

----------------
TOTAL SCF ENERGY
----------------

Total Energy       :         -652.66050425 Eh          -17759.79521 eV

Components:
Nuclear Repulsion  :          916.86698693 Eh           24949.21911 eV
Electronic Energy  :        -1569.52749118 Eh          -42709.01432 eV
One Electron Energy:        -2710.75645577 Eh          -73763.43322 eV
Two Electron Energy:         1141.22896459 Eh           31054.41890 eV

Virial components:
Potential Energy   :        -1302.32436555 Eh          -35438.04762 eV
Kinetic Energy     :          649.66386130 Eh           17678.25241 eV
Virial Ratio       :            2.00461261


DFT components:
N(Alpha)           :       51.000273517887 electrons
N(Beta)            :       51.000273517887 electrons
N(Total)           :      102.000547035773 electrons
E(X)               :      -67.705135187353 Eh       
E(C)               :       -4.089428075661 Eh       
E(XC)              :      -71.794563263015 Eh       
DFET-embed. en.    :        0.000000000000 Eh       

---------------
SCF CONVERGENCE
---------------

  Last Energy change         ...   -7.7614e-08  Tolerance :   1.0000e-08
  Last MAX-Density change    ...    1.7051e-05  Tolerance :   1.0000e-07
  Last RMS-Density change    ...    7.1508e-07  Tolerance :   5.0000e-09
  Last Orbital Gradient      ...    2.1999e-06  Tolerance :   1.0000e-05
  Last Orbital Rotation      ...    3.5747e-06  Tolerance :   1.0000e-05

             **** THE GBW FILE WAS UPDATED (project_8051/ensemble_150_15.gbw) ****
             **** DENSITY FILE WAS UPDATED (project_8051/ensemble_150_15.scfp) ****
             **** ENERGY FILE WAS UPDATED (project_8051/ensemble_150_15.en.tmp) ****
             **** THE GBW FILE WAS UPDATED (project_8051/ensemble_150_15.gbw) ****
             **** DENSITY FILE WAS UPDATED (project_8051/ensemble_150_15.scfp) ****
----------------
ORBITAL ENERGIES
----------------

  NO   OCC          E(Eh)            E(eV) 
   0   2.0000     -19.154745      -521.2271 
   1   2.0000     -19.154737      -521.2269 
   2   2.0000     -19.147225      -521.0225 
   3   2.0000     -19.136275      -520.7245 
   4   2.0000     -10.261779      -279.2372 
   5   2.0000     -10.258512      -279.1483 
   6   2.0000     -10.242476      -278.7119 
   7   2.0000     -10.240616      -278.6613 
   8   2.0000     -10.238184      -278.5951 
   9   2.0000     -10.216056      -277.9930 
  10   2.0000     -10.205338      -277.7014 
  11   2.0000     -10.182943      -277.0920 
  12   2.0000     -10.166193      -276.6362 
  13   2.0000      -1.040721       -28.3194 
  14   2.0000      -1.023609       -27.8538 
  15   2.0000      -0.990401       -26.9502 
  16   2.0000      -0.961873       -26.1739 
  17   2.0000      -0.818309       -22.2673 
  18   2.0000      -0.793877       -21.6025 
  19   2.0000      -0.769406       -20.9366 
  20   2.0000      -0.733727       -19.9657 
  21   2.0000      -0.686136       -18.6707 
  22   2.0000      -0.650642       -17.7049 
  23   2.0000      -0.611819       -16.6485 
  24   2.0000      -0.588954       -16.0262 
  25   2.0000      -0.581204       -15.8154 
  26   2.0000      -0.535251       -14.5649 
  27   2.0000      -0.507371       -13.8063 
  28   2.0000      -0.497097       -13.5267 
  29   2.0000      -0.484950       -13.1962 
  30   2.0000      -0.463781       -12.6201 
  31   2.0000      -0.451787       -12.2938 
  32   2.0000      -0.445771       -12.1300 
  33   2.0000      -0.443153       -12.0588 
  34   2.0000      -0.434111       -11.8128 
  35   2.0000      -0.421380       -11.4663 
  36   2.0000      -0.409594       -11.1456 
  37   2.0000      -0.403325       -10.9750 
  38   2.0000      -0.382781       -10.4160 
  39   2.0000      -0.370046       -10.0695 
  40   2.0000      -0.364706        -9.9242 
  41   2.0000      -0.350869        -9.5476 
  42   2.0000      -0.347655        -9.4602 
  43   2.0000      -0.323558        -8.8045 
  44   2.0000      -0.317185        -8.6310 
  45   2.0000      -0.300504        -8.1771 
  46   2.0000      -0.295001        -8.0274 
  47   2.0000      -0.259437        -7.0596 
  48   2.0000      -0.251839        -6.8529 
  49   2.0000      -0.246543        -6.7088 
  50   2.0000      -0.243248        -6.6191 
  51   0.0000       0.026926         0.7327 
  52   0.0000       0.055629         1.5137 
  53   0.0000       0.069205         1.8832 
  54   0.0000       0.081113         2.2072 
  55   0.0000       0.097481         2.6526 
  56   0.0000       0.101920         2.7734 
  57   0.0000       0.112106         3.0506 
  58   0.0000       0.115133         3.1329 
  59   0.0000       0.127928         3.4811 
  60   0.0000       0.137592         3.7441 
  61   0.0000       0.146406         3.9839 
  62   0.0000       0.150958         4.1078 
  63   0.0000       0.160755         4.3744 
  64   0.0000       0.162802         4.4301 
  65   0.0000       0.167218         4.5502 
  66   0.0000       0.179652         4.8886 
  67   0.0000       0.186865         5.0849 
  68   0.0000       0.190336         5.1793 
  69   0.0000       0.196923         5.3586 
  70   0.0000       0.218749         5.9525 
  71   0.0000       0.231248         6.2926 
  72   0.0000       0.234439         6.3794 
  73   0.0000       0.246133         6.6976 
  74   0.0000       0.253075         6.8865 
  75   0.0000       0.260664         7.0930 
  76   0.0000       0.270591         7.3631 
  77   0.0000       0.280632         7.6364 
  78   0.0000       0.287264         7.8169 
  79   0.0000       0.311201         8.4682 
  80   0.0000       0.441950        12.0261 
  81   0.0000       0.493577        13.4309 
  82   0.0000       0.515698        14.0329 
  83   0.0000       0.530968        14.4484 
  84   0.0000       0.533473        14.5165 
  85   0.0000       0.558174        15.1887 
  86   0.0000       0.567215        15.4347 
  87   0.0000       0.569870        15.5070 
  88   0.0000       0.580755        15.8031 
  89   0.0000       0.589574        16.0431 
  90   0.0000       0.604766        16.4565 
  91   0.0000       0.615893        16.7593 
  92   0.0000       0.632627        17.2147 
  93   0.0000       0.635321        17.2880 
  94   0.0000       0.642409        17.4808 
  95   0.0000       0.661531        18.0012 
  96   0.0000       0.673636        18.3306 
  97   0.0000       0.689662        18.7666 
  98   0.0000       0.712066        19.3763 
  99   0.0000       0.731379        19.9018 
 100   0.0000       0.759687        20.6721 
 101   0.0000       0.776125        21.1194 
 102   0.0000       0.802976        21.8501 
 103   0.0000       0.812425        22.1072 
 104   0.0000       0.826587        22.4926 
 105   0.0000       0.833580        22.6829 
 106   0.0000       0.847065        23.0498 
 107   0.0000       0.872743        23.7486 
 108   0.0000       0.877404        23.8754 
 109   0.0000       0.885026        24.0828 
 110   0.0000       0.895376        24.3644 
 111   0.0000       0.899642        24.4805 
 112   0.0000       0.903890        24.5961 
 113   0.0000       0.912267        24.8241 
 114   0.0000       0.921416        25.0730 
 115   0.0000       0.937666        25.5152 
 116   0.0000       0.940178        25.5835 
 117   0.0000       0.947741        25.7893 
 118   0.0000       0.974900        26.5284 
 119   0.0000       0.981626        26.7114 
 120   0.0000       0.989311        26.9205 
 121   0.0000       0.994430        27.0598 
 122   0.0000       1.038041        28.2465 
 123   0.0000       1.051955        28.6251 
 124   0.0000       1.063771        28.9467 
 125   0.0000       1.108480        30.1633 
 126   0.0000       1.117566        30.4105 
 127   0.0000       1.168353        31.7925 
 128   0.0000       1.217662        33.1343 
 129   0.0000       1.238334        33.6968 
 130   0.0000       1.245710        33.8975 
 131   0.0000       1.281287        34.8656 
 132   0.0000       1.303288        35.4643 
 133   0.0000       1.322291        35.9814 
 134   0.0000       1.344916        36.5970 
 135   0.0000       1.377305        37.4784 
 136   0.0000       1.427075        38.8327 
 137   0.0000       1.441159        39.2159 
 138   0.0000       1.473426        40.0940 
 139   0.0000       1.498915        40.7876 
 140   0.0000       1.567309        42.6487 
 141   0.0000       1.611594        43.8537 
 142   0.0000       1.625806        44.2404 
 143   0.0000       1.662854        45.2486 
 144   0.0000       1.820794        49.5463 
 145   0.0000       1.940713        52.8095 
 146   0.0000       2.087076        56.7922 
 147   0.0000       2.128619        57.9227 
 148   0.0000       2.147303        58.4311 

                    ********************************
                    * MULLIKEN POPULATION ANALYSIS *
                    ********************************

-----------------------
MULLIKEN ATOMIC CHARGES
-----------------------
   0 C :    0.286956
   1 C :   -0.308965
   2 C :   -0.297061
   3 C :    0.004813
   4 O :   -0.511373
   5 H :    0.236657
   6 H :    0.151112
   7 H :    0.084221
   8 H :    0.140059
   9 H :    0.145304
  10 H :    0.143582
  11 H :    0.138000
  12 C :   -0.040791
  13 H :    0.147868
  14 H :    0.161446
  15 O :   -0.532455
  16 C :    0.018627
  17 C :    0.098240
  18 C :   -0.317112
  19 C :   -0.016535
  20 O :   -0.538950
  21 H :    0.253586
  22 H :    0.166558
  23 O :   -0.604527
  24 H :    0.163908
  25 H :    0.152569
  26 H :    0.148617
  27 H :    0.150802
  28 H :    0.374844
Sum of atomic charges:    0.0000000

--------------------------------
MULLIKEN REDUCED ORBITAL CHARGES
--------------------------------
  0 C s       :     3.246969  s :     3.246969
      pz      :     0.793898  p :     2.466076
      px      :     0.641766
      py      :     1.030411
  1 C s       :     3.313614  s :     3.313614
      pz      :     0.991296  p :     2.995351
      px      :     1.075137
      py      :     0.928918
  2 C s       :     3.313448  s :     3.313448
      pz      :     0.916550  p :     2.983613
      px      :     1.069109
      py      :     0.997954
  3 C s       :     3.257817  s :     3.257817
      pz      :     0.935551  p :     2.737370
      px      :     1.052344
      py      :     0.749476
  4 O s       :     3.955042  s :     3.955042
      pz      :     1.331311  p :     4.556330
      px      :     1.711820
      py      :     1.513198
  5 H s       :     0.763343  s :     0.763343
  6 H s       :     0.848888  s :     0.848888
  7 H s       :     0.915779  s :     0.915779
  8 H s       :     0.859941  s :     0.859941
  9 H s       :     0.854696  s :     0.854696
 10 H s       :     0.856418  s :     0.856418
 11 H s       :     0.862000  s :     0.862000
 12 C s       :     3.297037  s :     3.297037
      pz      :     0.870506  p :     2.743754
      px      :     0.955751
      py      :     0.917497
 13 H s       :     0.852132  s :     0.852132
 14 H s       :     0.838554  s :     0.838554
 15 O s       :     3.955466  s :     3.955466
      pz      :     1.658168  p :     4.576989
      px      :     1.324506
      py      :     1.594315
 16 C s       :     3.290739  s :     3.290739
      pz      :     0.865056  p :     2.690634
      px      :     0.993677
      py      :     0.831901
 17 C s       :     3.274431  s :     3.274431
      pz      :     0.901024  p :     2.627329
      px      :     0.996931
      py      :     0.729374
 18 C s       :     3.330303  s :     3.330303
      pz      :     1.066369  p :     2.986809
      px      :     0.967329
      py      :     0.953110
 19 C s       :     3.265754  s :     3.265754
      pz      :     0.871466  p :     2.750781
      px      :     1.001089
      py      :     0.878226
 20 O s       :     3.971949  s :     3.971949
      pz      :     1.386616  p :     4.567002
      px      :     1.645892
      py      :     1.534494
 21 H s       :     0.746414  s :     0.746414
 22 H s       :     0.833442  s :     0.833442
 23 O s       :     3.946372  s :     3.946372
      pz      :     1.647812  p :     4.658154
      px      :     1.534770
      py      :     1.475573
 24 H s       :     0.836092  s :     0.836092
 25 H s       :     0.847431  s :     0.847431
 26 H s       :     0.851383  s :     0.851383
 27 H s       :     0.849198  s :     0.849198
 28 H s       :     0.625156  s :     0.625156


                     *******************************
                     * LOEWDIN POPULATION ANALYSIS *
                     *******************************

----------------------
LOEWDIN ATOMIC CHARGES
----------------------
   0 C :    0.151935
   1 C :   -0.280614
   2 C :   -0.218123
   3 C :   -0.030660
   4 O :   -0.303433
   5 H :    0.149750
   6 H :    0.118746
   7 H :    0.154692
   8 H :    0.113023
   9 H :    0.108029
  10 H :    0.103647
  11 H :    0.100479
  12 C :   -0.057350
  13 H :    0.110561
  14 H :    0.116373
  15 O :   -0.368992
  16 C :   -0.034407
  17 C :    0.041480
  18 C :   -0.230640
  19 C :   -0.033884
  20 O :   -0.319026
  21 H :    0.160552
  22 H :    0.123303
  23 O :   -0.429859
  24 H :    0.127151
  25 H :    0.113815
  26 H :    0.104223
  27 H :    0.107057
  28 H :    0.302170

-------------------------------
LOEWDIN REDUCED ORBITAL CHARGES
-------------------------------
  0 C s       :     2.993091  s :     2.993091
      pz      :     0.928599  p :     2.854974
      px      :     0.810738
      py      :     1.115637
  1 C s       :     2.995879  s :     2.995879
      pz      :     1.091033  p :     3.284735
      px      :     1.120338
      py      :     1.073364
  2 C s       :     2.972152  s :     2.972152
      pz      :     1.038648  p :     3.245971
      px      :     1.124550
      py      :     1.082773
  3 C s       :     2.984051  s :     2.984051
      pz      :     1.037442  p :     3.046609
      px      :     1.117646
      py      :     0.891520
  4 O s       :     3.610163  s :     3.610163
      pz      :     1.388647  p :     4.693270
      px      :     1.743955
      py      :     1.560669
  5 H s       :     0.850250  s :     0.850250
  6 H s       :     0.881254  s :     0.881254
  7 H s       :     0.845308  s :     0.845308
  8 H s       :     0.886977  s :     0.886977
  9 H s       :     0.891971  s :     0.891971
 10 H s       :     0.896353  s :     0.896353
 11 H s       :     0.899521  s :     0.899521
 12 C s       :     3.003752  s :     3.003752
      pz      :     0.990032  p :     3.053598
      px      :     1.060592
      py      :     1.002975
 13 H s       :     0.889439  s :     0.889439
 14 H s       :     0.883627  s :     0.883627
 15 O s       :     3.657105  s :     3.657105
      pz      :     1.691784  p :     4.711886
      px      :     1.383240
      py      :     1.636862
 16 C s       :     2.988881  s :     2.988881
      pz      :     1.001037  p :     3.045526
      px      :     1.056907
      py      :     0.987582
 17 C s       :     2.971264  s :     2.971264
      pz      :     1.013805  p :     2.987256
      px      :     1.099497
      py      :     0.873954
 18 C s       :     2.980502  s :     2.980502
      pz      :     1.113421  p :     3.250138
      px      :     1.068780
      py      :     1.067937
 19 C s       :     2.982296  s :     2.982296
      pz      :     0.975015  p :     3.051588
      px      :     1.072273
      py      :     1.004300
 20 O s       :     3.605362  s :     3.605362
      pz      :     1.444598  p :     4.713664
      px      :     1.683075
      py      :     1.585992
 21 H s       :     0.839448  s :     0.839448
 22 H s       :     0.876697  s :     0.876697
 23 O s       :     3.678454  s :     3.678454
      pz      :     1.660027  p :     4.751404
      px      :     1.569850
      py      :     1.521527
 24 H s       :     0.872849  s :     0.872849
 25 H s       :     0.886185  s :     0.886185
 26 H s       :     0.895777  s :     0.895777
 27 H s       :     0.892943  s :     0.892943
 28 H s       :     0.697830  s :     0.697830


                      *****************************
                      * MAYER POPULATION ANALYSIS *
                      *****************************

  NA   - Mulliken gross atomic population
  ZA   - Total nuclear charge
  QA   - Mulliken gross atomic charge
  VA   - Mayer's total valence
  BVA  - Mayer's bonded valence
  FA   - Mayer's free valence

  ATOM       NA         ZA         QA         VA         BVA        FA
  0 C      5.7130     6.0000     0.2870     3.5038     3.5038    -0.0000
  1 C      6.3090     6.0000    -0.3090     3.6622     3.6622     0.0000
  2 C      6.2971     6.0000    -0.2971     3.7670     3.7670     0.0000
  3 C      5.9952     6.0000     0.0048     3.6725     3.6725     0.0000
  4 O      8.5114     8.0000    -0.5114     1.8000     1.8000     0.0000
  5 H      0.7633     1.0000     0.2367     0.9184     0.9184    -0.0000
  6 H      0.8489     1.0000     0.1511     0.9346     0.9346     0.0000
  7 H      0.9158     1.0000     0.0842     0.8893     0.8893     0.0000
  8 H      0.8599     1.0000     0.1401     0.9374     0.9374    -0.0000
  9 H      0.8547     1.0000     0.1453     0.9343     0.9343    -0.0000
 10 H      0.8564     1.0000     0.1436     0.9273     0.9273     0.0000
 11 H      0.8620     1.0000     0.1380     0.9295     0.9295     0.0000
 12 C      6.0408     6.0000    -0.0408     3.6510     3.6510    -0.0000
 13 H      0.8521     1.0000     0.1479     0.9335     0.9335     0.0000
 14 H      0.8386     1.0000     0.1614     0.9274     0.9274    -0.0000
 15 O      8.5325     8.0000    -0.5325     1.7737     1.7737    -0.0000
 16 C      5.9814     6.0000     0.0186     3.4645     3.4645     0.0000
 17 C      5.9018     6.0000     0.0982     3.6343     3.6343     0.0000
 18 C      6.3171     6.0000    -0.3171     3.7266     3.7266     0.0000
 19 C      6.0165     6.0000    -0.0165     3.6489     3.6489     0.0000
 20 O      8.5390     8.0000    -0.5390     1.7216     1.7216     0.0000
 21 H      0.7464     1.0000     0.2536     0.8690     0.8690     0.0000
 22 H      0.8334     1.0000     0.1666     0.9279     0.9279    -0.0000
 23 O      8.6045     8.0000    -0.6045     1.7784     1.7784     0.0000
 24 H      0.8361     1.0000     0.1639     0.9364     0.9364    -0.0000
 25 H      0.8474     1.0000     0.1526     0.9392     0.9392     0.0000
 26 H      0.8514     1.0000     0.1486     0.9253     0.9253    -0.0000
 27 H      0.8492     1.0000     0.1508     0.9273     0.9273     0.0000
 28 H      0.6252     1.0000     0.3748     0.8464     0.8464     0.0000

  Mayer bond orders larger than 0.100000
B(  0-C ,  1-C ) :   0.9350 B(  0-C ,  4-O ) :   0.8850 B(  0-C ,  5-H ) :   0.8568 
B(  0-C , 15-O ) :   0.7753 B(  1-C ,  2-C ) :   0.9532 B(  1-C ,  6-H ) :   0.9341 
B(  1-C ,  7-H ) :   0.7454 B(  1-C , 16-C ) :   0.1436 B(  2-C ,  3-C ) :   0.9582 
B(  2-C ,  8-H ) :   0.9443 B(  2-C ,  9-H ) :   0.9454 B(  3-C ,  4-O ) :   0.8439 
B(  3-C , 10-H ) :   0.9344 B(  3-C , 11-H ) :   0.9396 B(  7-H , 21-H ) :   0.1935 
B( 12-C , 13-H ) :   0.9240 B( 12-C , 14-H ) :   0.9199 B( 12-C , 15-O ) :   0.8508 
B( 12-C , 16-C ) :   0.8958 B( 16-C , 17-C ) :   0.8916 B( 16-C , 20-O ) :   0.7732 
B( 16-C , 21-H ) :   0.7318 B( 17-C , 18-C ) :   0.9267 B( 17-C , 22-H ) :   0.9305 
B( 17-C , 23-O ) :   0.8789 B( 18-C , 19-C ) :   0.9305 B( 18-C , 24-H ) :   0.9407 
B( 18-C , 25-H ) :   0.9396 B( 19-C , 20-O ) :   0.8379 B( 19-C , 26-H ) :   0.9324 
B( 19-C , 27-H ) :   0.9379 B( 23-O , 28-H ) :   0.7560 

-------
TIMINGS
-------

Total SCF time: 0 days 0 hours 9 min 57 sec 

Total time                  ....     597.035 sec
Sum of individual times     ....     555.125 sec  ( 93.0%)

Fock matrix formation       ....     534.498 sec  ( 89.5%)
  XC integration            ....     373.802 sec  ( 69.9% of F)
    Basis function eval.    ....       2.980 sec  (  0.8% of XC)
    Density eval.           ....       3.240 sec  (  0.9% of XC)
    XC-Functional eval.     ....       2.681 sec  (  0.7% of XC)
    XC-Potential eval.      ....       1.532 sec  (  0.4% of XC)
Diagonalization             ....       1.613 sec  (  0.3%)
Density matrix formation    ....       0.009 sec  (  0.0%)
Population analysis         ....       0.587 sec  (  0.1%)
Initial guess               ....       3.389 sec  (  0.6%)
Orbital Transformation      ....       0.000 sec  (  0.0%)
Orbital Orthonormalization  ....       0.000 sec  (  0.0%)
DIIS solution               ....       1.957 sec  (  0.3%)
SOSCF solution              ....       0.765 sec  (  0.1%)
Grid generation             ....      12.308 sec  (  2.1%)

-------------------------   --------------------
FINAL SINGLE POINT ENERGY      -652.660504249748
-------------------------   --------------------

------------------------------------------------------------------------------
                         ORCA SCF GRADIENT CALCULATION
------------------------------------------------------------------------------

Gradient of the Kohn-Sham DFT energy:
Kohn-Sham wavefunction type      ... RKS
Hartree-Fock exchange scaling    ...    0.200
Number of operators              ...    1
Number of atoms                  ...   29
Basis set dimensions             ...  149
Integral neglect threshold       ... 2.5e-11
Integral primitive cutoff        ... 2.5e-12

Nuclear repulsion gradient       ... done
One Electron Gradient            ... done
Pre-screening matrix             ... done
Starting the two electron gradient:
Two electron gradient done
Exchange-correlation gradient    ... done

------------------
CARTESIAN GRADIENT
------------------

   1   C   :   -0.015291254    0.002524405   -0.027525649
   2   C   :   -0.040040988    0.007918559   -0.049402923
   3   C   :   -0.003924956    0.003027243   -0.002415911
   4   C   :    0.001861601   -0.004555240   -0.006642830
   5   O   :    0.017897940   -0.014326221    0.015714950
   6   H   :    0.000645075   -0.007146968   -0.019567918
   7   H   :   -0.001708228    0.004219009   -0.001194751
   8   H   :   -0.153616081    0.056072481   -0.150294532
   9   H   :   -0.000500245    0.000324500    0.000001577
  10   H   :    0.000206385    0.000384074   -0.000346143
  11   H   :   -0.000539133    0.000632920    0.000741055
  12   H   :   -0.000490094    0.000645958    0.000679760
  13   C   :   -0.023733104    0.001628175   -0.009826054
  14   H   :   -0.002260324    0.004709773   -0.007094647
  15   H   :   -0.000673222    0.005051061   -0.004340877
[...]
  29   2.0000      -0.485811       -13.2196 
  30   2.0000      -0.470190       -12.7945 
  31   2.0000      -0.459040       -12.4911 
  32   2.0000      -0.443609       -12.0712 
  33   2.0000      -0.441006       -12.0004 
  34   2.0000      -0.433534       -11.7971 
  35   2.0000      -0.417943       -11.3728 
  36   2.0000      -0.412572       -11.2267 
  37   2.0000      -0.402442       -10.9510 
  38   2.0000      -0.384493       -10.4626 
  39   2.0000      -0.374237       -10.1835 
  40   2.0000      -0.362303        -9.8588 
  41   2.0000      -0.355327        -9.6689 
  42   2.0000      -0.352273        -9.5858 
  43   2.0000      -0.341587        -9.2950 
  44   2.0000      -0.320962        -8.7338 
  45   2.0000      -0.310468        -8.4483 
  46   2.0000      -0.295073        -8.0293 
  47   2.0000      -0.273879        -7.4526 
  48   2.0000      -0.259327        -7.0567 
  49   2.0000      -0.251269        -6.8374 
  50   2.0000      -0.243096        -6.6150 
  51   0.0000       0.048611         1.3228 
  52   0.0000       0.067547         1.8380 
  53   0.0000       0.078252         2.1293 
  54   0.0000       0.090740         2.4692 
  55   0.0000       0.099213         2.6997 
  56   0.0000       0.108334         2.9479 
  57   0.0000       0.118384         3.2214 
  58   0.0000       0.122646         3.3374 
  59   0.0000       0.137245         3.7346 
  60   0.0000       0.142568         3.8795 
  61   0.0000       0.149136         4.0582 
  62   0.0000       0.151264         4.1161 
  63   0.0000       0.158050         4.3008 
  64   0.0000       0.162875         4.4320 
  65   0.0000       0.170501         4.6396 
  66   0.0000       0.182196         4.9578 
  67   0.0000       0.187675         5.1069 
  68   0.0000       0.193692         5.2706 
  69   0.0000       0.210277         5.7219 
  70   0.0000       0.224028         6.0961 
  71   0.0000       0.226044         6.1510 
  72   0.0000       0.231732         6.3057 
  73   0.0000       0.237486         6.4623 
  74   0.0000       0.247180         6.7261 
  75   0.0000       0.259508         7.0616 
  76   0.0000       0.269344         7.3292 
  77   0.0000       0.282421         7.6851 
  78   0.0000       0.288236         7.8433 
  79   0.0000       0.313604         8.5336 
  80   0.0000       0.336485         9.1562 
  81   0.0000       0.503171        13.6920 
  82   0.0000       0.529486        14.4081 
  83   0.0000       0.535604        14.5745 
  84   0.0000       0.547412        14.8958 
  85   0.0000       0.556619        15.1464 
  86   0.0000       0.561414        15.2768 
  87   0.0000       0.568444        15.4681 
  88   0.0000       0.577726        15.7207 
  89   0.0000       0.587633        15.9903 
  90   0.0000       0.594025        16.1642 
  91   0.0000       0.607955        16.5433 
  92   0.0000       0.628391        17.0994 
  93   0.0000       0.634725        17.2717 
  94   0.0000       0.639982        17.4148 
  95   0.0000       0.647475        17.6187 
  96   0.0000       0.654957        17.8223 
  97   0.0000       0.663700        18.0602 
  98   0.0000       0.704889        19.1810 
  99   0.0000       0.710915        19.3450 
 100   0.0000       0.735947        20.0261 
 101   0.0000       0.749357        20.3910 
 102   0.0000       0.795224        21.6392 
 103   0.0000       0.813179        22.1277 
 104   0.0000       0.834606        22.7108 
 105   0.0000       0.838391        22.8138 
 106   0.0000       0.847727        23.0678 
 107   0.0000       0.869992        23.6737 
 108   0.0000       0.873294        23.7635 
 109   0.0000       0.883695        24.0466 
 110   0.0000       0.885832        24.1047 
 111   0.0000       0.893033        24.3007 
 112   0.0000       0.898389        24.4464 
 113   0.0000       0.903732        24.5918 
 114   0.0000       0.925873        25.1943 
 115   0.0000       0.935006        25.4428 
 116   0.0000       0.937311        25.5055 
 117   0.0000       0.956375        26.0243 
 118   0.0000       0.960802        26.1448 
 119   0.0000       0.973675        26.4950 
 120   0.0000       0.979246        26.6466 
 121   0.0000       0.992852        27.0169 
 122   0.0000       1.016561        27.6620 
 123   0.0000       1.021297        27.7909 
 124   0.0000       1.031924        28.0801 
 125   0.0000       1.067055        29.0360 
 126   0.0000       1.089714        29.6526 
 127   0.0000       1.126901        30.6645 
 128   0.0000       1.141683        31.0668 
 129   0.0000       1.154272        31.4093 
 130   0.0000       1.185950        32.2713 
 131   0.0000       1.222742        33.2725 
 132   0.0000       1.268912        34.5289 
 133   0.0000       1.281771        34.8788 
 134   0.0000       1.338856        36.4321 
 135   0.0000       1.375818        37.4379 
 136   0.0000       1.391144        37.8550 
 137   0.0000       1.440669        39.2026 
 138   0.0000       1.451175        39.4885 
 139   0.0000       1.493321        40.6353 
 140   0.0000       1.523396        41.4537 
 141   0.0000       1.567924        42.6654 
 142   0.0000       1.608430        43.7676 
 143   0.0000       1.649702        44.8907 
 144   0.0000       1.732606        47.1466 
 145   0.0000       1.906014        51.8653 
 146   0.0000       1.998164        54.3728 
 147   0.0000       2.029803        55.2338 
 148   0.0000       2.125784        57.8455 

                    ********************************
                    * MULLIKEN POPULATION ANALYSIS *
                    ********************************

-----------------------
MULLIKEN ATOMIC CHARGES
-----------------------
   0 C :    0.319444
   1 C :   -0.278574
   2 C :   -0.305131
   3 C :   -0.003089
   4 O :   -0.497425
   5 H :    0.146943
   6 H :    0.151310
   7 H :    0.144533
   8 H :    0.142549
   9 H :    0.152830
  10 H :    0.151556
  11 H :    0.144744
  12 C :   -0.001169
  13 H :    0.142652
  14 H :    0.157366
  15 O :   -0.554984
  16 C :    0.047618
  17 C :    0.089662
  18 C :   -0.321918
  19 C :   -0.018187
  20 O :   -0.521580
  21 H :    0.162558
  22 H :    0.166418
  23 O :   -0.599972
  24 H :    0.160740
  25 H :    0.145624
  26 H :    0.150932
  27 H :    0.154229
  28 H :    0.370322
Sum of atomic charges:   -0.0000000

--------------------------------
MULLIKEN REDUCED ORBITAL CHARGES
--------------------------------
  0 C s       :     3.195145  s :     3.195145
      pz      :     0.750902  p :     2.485412
      px      :     0.717611
      py      :     1.016899
  1 C s       :     3.314375  s :     3.314375
      pz      :     0.998607  p :     2.964199
      px      :     1.000683
      py      :     0.964909
  2 C s       :     3.317332  s :     3.317332
      pz      :     0.917307  p :     2.987798
      px      :     1.075435
      py      :     0.995056
  3 C s       :     3.260341  s :     3.260341
      pz      :     0.937209  p :     2.742748
      px      :     1.042326
      py      :     0.763213
  4 O s       :     3.935688  s :     3.935688
      pz      :     1.239444  p :     4.561737
      px      :     1.794294
      py      :     1.527998
  5 H s       :     0.853057  s :     0.853057
  6 H s       :     0.848690  s :     0.848690
  7 H s       :     0.855467  s :     0.855467
  8 H s       :     0.857451  s :     0.857451
  9 H s       :     0.847170  s :     0.847170
 10 H s       :     0.848444  s :     0.848444
 11 H s       :     0.855256  s :     0.855256
 12 C s       :     3.258316  s :     3.258316
      pz      :     0.856994  p :     2.742854
      px      :     0.941437
      py      :     0.944422
 13 H s       :     0.857348  s :     0.857348
 14 H s       :     0.842634  s :     0.842634
 15 O s       :     3.899519  s :     3.899519
      pz      :     1.627846  p :     4.655465
      px      :     1.369889
      py      :     1.657730
 16 C s       :     3.272437  s :     3.272437
      pz      :     0.881401  p :     2.679946
      px      :     0.915657
      py      :     0.882887
 17 C s       :     3.246197  s :     3.246197
      pz      :     0.965236  p :     2.664141
      px      :     0.937943
      py      :     0.760962
 18 C s       :     3.325003  s :     3.325003
      pz      :     1.085586  p :     2.996915
      px      :     0.945045
      py      :     0.966284
 19 C s       :     3.268865  s :     3.268865
      pz      :     0.908848  p :     2.749322
      px      :     0.970172
      py      :     0.870303
 20 O s       :     3.951423  s :     3.951423
      pz      :     1.512114  p :     4.570157
      px      :     1.505020
      py      :     1.553023
 21 H s       :     0.837442  s :     0.837442
 22 H s       :     0.833582  s :     0.833582
 23 O s       :     3.923298  s :     3.923298
      pz      :     1.646047  p :     4.676675
      px      :     1.611698
      py      :     1.418930
 24 H s       :     0.839260  s :     0.839260
 25 H s       :     0.854376  s :     0.854376
 26 H s       :     0.849068  s :     0.849068
 27 H s       :     0.845771  s :     0.845771
 28 H s       :     0.629678  s :     0.629678


                     *******************************
                     * LOEWDIN POPULATION ANALYSIS *
                     *******************************

----------------------
LOEWDIN ATOMIC CHARGES
----------------------
   0 C :    0.189039
   1 C :   -0.226963
   2 C :   -0.219441
   3 C :   -0.027707
   4 O :   -0.303188
   5 H :    0.099748
   6 H :    0.120446
   7 H :    0.114294
   8 H :    0.114929
   9 H :    0.112491
  10 H :    0.107668
  11 H :    0.103242
  12 C :   -0.045888
  13 H :    0.104590
  14 H :    0.111275
  15 O :   -0.360366
  16 C :    0.003296
  17 C :    0.033001
  18 C :   -0.240456
  19 C :   -0.031560
  20 O :   -0.317901
  21 H :    0.111902
  22 H :    0.118650
  23 O :   -0.404424
  24 H :    0.125264
  25 H :    0.110267
  26 H :    0.105679
  27 H :    0.108223
  28 H :    0.283889

-------------------------------
LOEWDIN REDUCED ORBITAL CHARGES
-------------------------------
  0 C s       :     2.953586  s :     2.953586
      pz      :     0.893340  p :     2.857375
      px      :     0.877724
      py      :     1.086312
  1 C s       :     2.979131  s :     2.979131
      pz      :     1.083042  p :     3.247832
      px      :     1.095255
      py      :     1.069535
  2 C s       :     2.972293  s :     2.972293
      pz      :     1.037732  p :     3.247148
      px      :     1.125016
      py      :     1.084400
  3 C s       :     2.982633  s :     2.982633
      pz      :     1.042265  p :     3.045074
      px      :     1.104061
      py      :     0.898747
  4 O s       :     3.594175  s :     3.594175
      pz      :     1.317313  p :     4.709014
      px      :     1.817929
      py      :     1.573772
  5 H s       :     0.900252  s :     0.900252
  6 H s       :     0.879554  s :     0.879554
  7 H s       :     0.885706  s :     0.885706
  8 H s       :     0.885071  s :     0.885071
  9 H s       :     0.887509  s :     0.887509
 10 H s       :     0.892332  s :     0.892332
 11 H s       :     0.896758  s :     0.896758
 12 C s       :     2.979684  s :     2.979684
      pz      :     0.993490  p :     3.066205
      px      :     1.037234
      py      :     1.035480
 13 H s       :     0.895410  s :     0.895410
 14 H s       :     0.888725  s :     0.888725
 15 O s       :     3.570812  s :     3.570812
      pz      :     1.659840  p :     4.789553
      px      :     1.430647
      py      :     1.699066
 16 C s       :     2.967898  s :     2.967898
      pz      :     1.024554  p :     3.028805
      px      :     1.001691
      py      :     1.002560
 17 C s       :     2.952696  s :     2.952696
      pz      :     1.050356  p :     3.014303
      px      :     1.048836
      py      :     0.915111
 18 C s       :     2.982912  s :     2.982912
      pz      :     1.125529  p :     3.257544
      px      :     1.058016
      py      :     1.073998
 19 C s       :     2.982455  s :     2.982455
      pz      :     1.000758  p :     3.049104
      px      :     1.053657
      py      :     0.994690
 20 O s       :     3.603372  s :     3.603372
      pz      :     1.555762  p :     4.714529
      px      :     1.555711
      py      :     1.603057
 21 H s       :     0.888098  s :     0.888098
 22 H s       :     0.881350  s :     0.881350
 23 O s       :     3.608844  s :     3.608844
      pz      :     1.671554  p :     4.795580
      px      :     1.654175
      py      :     1.469850
 24 H s       :     0.874736  s :     0.874736
 25 H s       :     0.889733  s :     0.889733
 26 H s       :     0.894321  s :     0.894321
 27 H s       :     0.891777  s :     0.891777
 28 H s       :     0.716111  s :     0.716111


                      *****************************
                      * MAYER POPULATION ANALYSIS *
                      *****************************

  NA   - Mulliken gross atomic population
  ZA   - Total nuclear charge
  QA   - Mulliken gross atomic charge
  VA   - Mayer's total valence
  BVA  - Mayer's bonded valence
  FA   - Mayer's free valence

  ATOM       NA         ZA         QA         VA         BVA        FA
  0 C      5.6806     6.0000     0.3194     3.6658     3.6658     0.0000
  1 C      6.2786     6.0000    -0.2786     3.7157     3.7157    -0.0000
  2 C      6.3051     6.0000    -0.3051     3.7613     3.7613     0.0000
  3 C      6.0031     6.0000    -0.0031     3.6617     3.6617    -0.0000
  4 O      8.4974     8.0000    -0.4974     1.7939     1.7939    -0.0000
  5 H      0.8531     1.0000     0.1469     0.9361     0.9361     0.0000
  6 H      0.8487     1.0000     0.1513     0.9325     0.9325    -0.0000
  7 H      0.8555     1.0000     0.1445     0.9466     0.9466     0.0000
  8 H      0.8575     1.0000     0.1425     0.9373     0.9373     0.0000
  9 H      0.8472     1.0000     0.1528     0.9329     0.9329     0.0000
 10 H      0.8484     1.0000     0.1516     0.9263     0.9263     0.0000
 11 H      0.8553     1.0000     0.1447     0.9285     0.9285    -0.0000
 12 C      6.0012     6.0000    -0.0012     3.6539     3.6539     0.0000
 13 H      0.8573     1.0000     0.1427     0.9323     0.9323    -0.0000
 14 H      0.8426     1.0000     0.1574     0.9258     0.9258    -0.0000
 15 O      8.5550     8.0000    -0.5550     1.7157     1.7157     0.0000
 16 C      5.9524     6.0000     0.0476     3.5399     3.5399     0.0000
 17 C      5.9103     6.0000     0.0897     3.6593     3.6593    -0.0000
 18 C      6.3219     6.0000    -0.3219     3.7253     3.7253     0.0000
 19 C      6.0182     6.0000    -0.0182     3.6509     3.6509    -0.0000
 20 O      8.5216     8.0000    -0.5216     1.7549     1.7549    -0.0000
 21 H      0.8374     1.0000     0.1626     0.9324     0.9324    -0.0000
 22 H      0.8336     1.0000     0.1664     0.9253     0.9253    -0.0000
 23 O      8.6000     8.0000    -0.6000     1.7655     1.7655     0.0000
 24 H      0.8393     1.0000     0.1607     0.9364     0.9364    -0.0000
 25 H      0.8544     1.0000     0.1456     0.9404     0.9404     0.0000
 26 H      0.8491     1.0000     0.1509     0.9249     0.9249    -0.0000
 27 H      0.8458     1.0000     0.1542     0.9264     0.9264    -0.0000
 28 H      0.6297     1.0000     0.3703     0.8317     0.8317     0.0000

  Mayer bond orders larger than 0.100000
B(  0-C ,  1-C ) :   0.9321 B(  0-C ,  4-O ) :   0.9243 B(  0-C ,  5-H ) :   0.9186 
B(  0-C , 15-O ) :   0.8211 B(  1-C ,  2-C ) :   0.9483 B(  1-C ,  6-H ) :   0.9326 
B(  1-C ,  7-H ) :   0.9212 B(  2-C ,  3-C ) :   0.9535 B(  2-C ,  8-H ) :   0.9455 
B(  2-C ,  9-H ) :   0.9456 B(  3-C ,  4-O ) :   0.8373 B(  3-C , 10-H ) :   0.9346 
B(  3-C , 11-H ) :   0.9392 B( 12-C , 13-H ) :   0.9317 B( 12-C , 14-H ) :   0.9214 
B( 12-C , 15-O ) :   0.8362 B( 12-C , 16-C ) :   0.8850 B( 16-C , 17-C ) :   0.8827 
B( 16-C , 20-O ) :   0.8262 B( 16-C , 21-H ) :   0.9196 B( 17-C , 18-C ) :   0.9216 
B( 17-C , 22-H ) :   0.9328 B( 17-C , 23-O ) :   0.9088 B( 18-C , 19-C ) :   0.9392 
B( 18-C , 24-H ) :   0.9412 B( 18-C , 25-H ) :   0.9403 B( 19-C , 20-O ) :   0.8329 
B( 19-C , 26-H ) :   0.9322 B( 19-C , 27-H ) :   0.9377 B( 23-O , 28-H ) :   0.7786 


-------
TIMINGS
-------

Total SCF time: 0 days 0 hours 2 min 35 sec 

Total time                  ....     155.395 sec
Sum of individual times     ....     121.436 sec  ( 78.1%)

Fock matrix formation       ....      97.720 sec  ( 62.9%)
  XC integration            ....      38.490 sec  ( 39.4% of F)
    Basis function eval.    ....       1.527 sec  (  4.0% of XC)
    Density eval.           ....       1.138 sec  (  3.0% of XC)
    XC-Functional eval.     ....       0.987 sec  (  2.6% of XC)
    XC-Potential eval.      ....       0.740 sec  (  1.9% of XC)
Diagonalization             ....       1.615 sec  (  1.0%)
Density matrix formation    ....       0.004 sec  (  0.0%)
Population analysis         ....       9.808 sec  (  6.3%)
Initial guess               ....       0.007 sec  (  0.0%)
Orbital Transformation      ....       0.000 sec  (  0.0%)
Orbital Orthonormalization  ....       0.004 sec  (  0.0%)
DIIS solution               ....       0.002 sec  (  0.0%)
SOSCF solution              ....       0.111 sec  (  0.1%)
Grid generation             ....      12.168 sec  (  7.8%)

-------------------------   --------------------
FINAL SINGLE POINT ENERGY      -652.841577345256
-------------------------   --------------------

                                *** OPTIMIZATION RUN DONE ***

                            ***************************************
                            *     ORCA property calculations      *
                            ***************************************

                                    ---------------------
                                    Active property flags
                                    ---------------------
   (+) Dipole Moment


------------------------------------------------------------------------------
                       ORCA ELECTRIC PROPERTIES CALCULATION
------------------------------------------------------------------------------

Dipole Moment Calculation                       ... on
Quadrupole Moment Calculation                   ... off
Polarizability Calculation                      ... off
GBWName                                         ... project_8051/ensemble_150_15.gbw
Electron density file                           ... project_8051/ensemble_150_15.scfp
The origin for moment calculation is the CENTER OF MASS  = (-41.311639, 51.285432 85.313222)

-------------
DIPOLE MOMENT
-------------
                                X             Y             Z
Electronic contribution:     -0.81165      -2.30105       0.66547
Nuclear contribution   :      0.79766       2.78840      -1.41006
                        -----------------------------------------
Total Dipole Moment    :     -0.01399       0.48735      -0.74459
                        -----------------------------------------
Magnitude (a.u.)       :      0.89001
Magnitude (Debye)      :      2.26223



--------------------
Rotational spectrum 
--------------------
 
Rotational constants in cm-1:     0.058806     0.014547     0.013657 
Rotational constants in MHz :  1762.969880   436.119090   409.417811 

 Dipole components along the rotational axes: 
x,y,z [a.u.] :    -0.708152    -0.224825     0.489998 
x,y,z [Debye]:    -1.799979    -0.571459     1.245475 

 

Timings for individual modules:

Sum of individual times         ...     8191.236 sec (= 136.521 min)
GTO integral calculation        ...      197.089 sec (=   3.285 min)   2.4 %
SCF iterations                  ...     6996.380 sec (= 116.606 min)  85.4 %
SCF Gradient evaluation         ...      840.661 sec (=  14.011 min)  10.3 %
Geometry relaxation             ...      157.105 sec (=   2.618 min)   1.9 %
                             ****ORCA TERMINATED NORMALLY****
TOTAL RUN TIME: 0 days 2 hours 21 minutes 35 seconds 340 msec
