
                                 *****************
                                 * O   R   C   A *
                                 *****************

           --- An Ab Initio, DFT and Semiempirical electronic structure package ---

                  #######################################################
                  #                        -***-                        #
                  #          Department of theory and spectroscopy      #
                  #               Directorship: Frank Neese             #
                  #        Max Planck Institute fuer Kohlenforschung    #
                  #                Kaiser Wilhelm Platz 1               #
                  #                 D-45470 Muelheim/Ruhr               #
                  #                      Germany                        #
                  #                                                     #
                  #                  All rights reserved                #
                  #                        -***-                        #
                  #######################################################


                         Program Version 4.2.0 -  RELEASE  -


 With contributions from (in alphabetic order):
   Daniel Aravena         : Magnetic Suceptibility
   Michael Atanasov       : Ab Initio Ligand Field Theory (pilot matlab implementation)
   Alexander A. Auer      : GIAO ZORA, VPT2
   Ute Becker             : Parallelization
   Giovanni Bistoni       : ED, misc. LED, open-shell LED, HFLED
   Martin Brehm           : Molecular dynamics
   Dmytro Bykov           : SCF Hessian
   Vijay G. Chilkuri      : MRCI spin determinant printing, contributions to CSF-ICE
   Dipayan Datta          : RHF DLPNO-CCSD density
   Achintya Kumar Dutta   : EOM-CC, STEOM-CC
   Dmitry Ganyushin       : Spin-Orbit,Spin-Spin,Magnetic field MRCI
   Miquel Garcia          : C-PCM Hessian, Gaussian charge scheme
   Yang Guo               : DLPNO-NEVPT2, CIM, IAO-localization
   Andreas Hansen         : Spin unrestricted coupled pair/coupled cluster methods
   Benjamin Helmich-Paris : CASSCF linear response (MC-RPA)
   Lee Huntington         : MR-EOM, pCC
   Robert Izsak           : Overlap fitted RIJCOSX, COSX-SCS-MP3, EOM
   Christian Kollmar      : KDIIS, OOCD, Brueckner-CCSD(T), CCSD density
   Simone Kossmann        : Meta GGA functionals, TD-DFT gradient, OOMP2, MP2 Hessian
   Martin Krupicka        : AUTO-CI
   Lucas Lang             : DCDCAS
   Dagmar Lenk            : GEPOL surface, SMD
   Dimitrios Liakos       : Extrapolation schemes; Compound Job, initial MDCI parallelization
   Dimitrios Manganas     : Further ROCIS development; embedding schemes
   Dimitrios Pantazis     : SARC Basis sets
   Taras Petrenko         : DFT Hessian,TD-DFT gradient, ASA, ECA, R-Raman, ABS, FL, XAS/XES, NRVS
   Peter Pinski           : DLPNO-MP2, DLPNO-MP2 Gradient
   Christoph Reimann      : Effective Core Potentials
   Marius Retegan         : Local ZFS, SOC
   Christoph Riplinger    : Optimizer, TS searches, QM/MM, DLPNO-CCSD(T), (RO)-DLPNO pert. Triples
   Tobias Risthaus        : Range-separated hybrids, TD-DFT gradient, RPA, STAB
   Michael Roemelt        : Original ROCIS implementation
   Masaaki Saitow         : Open-shell DLPNO-CCSD energy and density
   Barbara Sandhoefer     : DKH picture change effects
   Avijit Sen             : IP-ROCIS
   Kantharuban Sivalingam : CASSCF convergence, NEVPT2, FIC-MRCI
   Bernardo de Souza      : ESD, SOC TD-DFT
   Georgi Stoychev        : AutoAux, RI-MP2 NMR
   Willem Van den Heuvel  : Paramagnetic NMR
   Boris Wezisla          : Elementary symmetry handling
   Frank Wennmohs         : Technical directorship


 We gratefully acknowledge several colleagues who have allowed us to
 interface, adapt or use parts of their codes:
   Stefan Grimme, W. Hujo, H. Kruse,             : VdW corrections, initial TS optimization,
                  C. Bannwarth                     DFT functionals, gCP, sTDA/sTD-DF
   Ed Valeev, F. Pavosevic, A. Kumar             : LibInt (2-el integral package), F12 methods
   Garnet Chan, S. Sharma, J. Yang, R. Olivares  : DMRG
   Ulf Ekstrom                                   : XCFun DFT Library
   Mihaly Kallay                                 : mrcc  (arbitrary order and MRCC methods)
   Andreas Klamt, Michael Diedenhofen            : otool_cosmo (COSMO solvation model)
   Jiri Pittner, Ondrej Demel                    : Mk-CCSD
   Frank Weinhold                                : gennbo (NPA and NBO analysis)
   Christopher J. Cramer and Donald G. Truhlar   : smd solvation model
   Lars Goerigk                                  : TD-DFT with DH, B97 family of functionals
   V. Asgeirsson, H. Jonsson                     : NEB implementation
   FAccTs GmbH                                   : IRC, NEB, NEB-TS, Multilevel, MM, QM/MM, CI optimization
   S Lehtola, MJT Oliveira, MAL Marques          : LibXC Library


 Your calculation uses the libint2 library for the computation of 2-el integrals
 For citations please refer to: http://libint.valeyev.net

 Your ORCA version has been built with support for libXC version: 4.2.3
 For citations please refer to: https://tddft.org/programs/libxc/

 This ORCA versions uses:
   CBLAS   interface :  Fast vector & matrix operations
   LAPACKE interface :  Fast linear algebra routines
   SCALAPACK package :  Parallel linear algebra routines


----- Orbital basis set information -----
Your calculation utilizes the basis: 6-31G
   H-He, Li-Ne : W. J. Hehre, R. Ditchfield and J.A. Pople, J. Chem. Phys. 56, 2257 (1972).
                 Note: He and Ne are unpublished basis sets taken from the Gaussian program.
                 Note: Li and B from J. D. Dill and J. A. Pople, J. Chem. Phys. 62, 2921 (1975).
   Na - Ar     : M. M. Francl, W. J. Pietro, W. J. Hehre, J. S. Binkley, M. S. Gordon, 
                 D. J. DeFrees and J. A. Pople, J. Chem. Phys. 77, 3654 (1982).
   K - Zn      : V. A. Rassolov, J. A. Pople, M. A. Ratner, and T. L. Windus, J. Chem. Phys. 109, 1223 (1998).

================================================================================
                                        WARNINGS
                       Please study these warnings very carefully!
================================================================================


WARNING: Geometry Optimization
  ===> : Switching off AutoStart
         For restart on a previous wavefunction, please use MOREAD

INFO   : the flag for use of LIBINT has been found!

================================================================================
                                       INPUT FILE
================================================================================
NAME = project_8052/ensemble_135_105.inp
|  1> # Test redundant internal optimization
|  2> #
|  3> ! RKS B3LYP  Opt TightSCF SmallPrint
|  4> 
|  5> %basis
|  6>         Basis "6-31G"
|  7> end
|  8> 
|  9> %geom
| 10> Constraints
| 11> { D 4  0  15  12  135.0   C } # D for Dihedral angle
| 12> { D 0  15  12  16  105.0   C } # D for Dihedral angle
| 13> { D 0  4  3  2   C } # D for Dihedral angle
| 14> { D 4  3  2  1   C } # D for Dihedral angle
| 15> { D 3  2  1  0   C } # D for Dihedral angle
| 16> { D 2  1  0  4   C } # D for Dihedral angle
| 17> { D 1  0  4  3   C } # D for Dihedral angle
| 18> { D 16  20  19  18   C } # D for Dihedral angle
| 19> { D 20  19  18  17   C } # D for Dihedral angle
| 20> { D 19  18  17  16   C } # D for Dihedral angle
| 21> { D 18  17  16  20   C } # D for Dihedral angle
| 22> { D 17  16  20  19   C } # D for Dihedral angle
| 23> { D 15  12  16  20   C } # D for Dihedral angle
| 24> end
| 25> end
| 26> 
| 27> 
| 28> #%pal 
| 29> #nprocs 8
| 30> #end
| 31> 
| 32> * xyz 0 1
| 33> C  -21.048   26.222   46.251
| 34> C  -20.361   27.558   45.944
| 35> C  -20.329   28.222   47.341
| 36> C  -20.110   27.022   48.296
| 37> O  -20.473   25.807   47.535
| 38> H  -20.833   25.428   45.533
| 39> H  -19.344   27.382   45.576
| 40> H  -20.898   28.157   45.201
| 41> H  -19.543   28.978   47.434
| 42> H  -21.289   28.710   47.548
| 43> H  -20.733   27.082   49.195
| 44> H  -19.064   26.913   48.597
| 45> C  -23.162   27.680   45.721
| 46> H  -23.872   28.151   46.411
| 47> H  -22.358   28.398   45.513
| 48> O  -22.586   26.394   46.375
| 49> C  -23.898   27.394   44.382
| 50> C  -24.351   28.694   43.708
| 51> C  -23.036   29.185   43.058
| 52> C  -22.339   27.867   42.637
| 53> O  -22.982   26.785   43.413
| 54> H  -24.700   26.675   44.561
| 55> O  -25.418   28.388   42.622
| 56> H  -24.773   29.419   44.412
| 57> H  -23.206   29.856   42.210
| 58> H  -22.429   29.724   43.796
| 59> H  -21.264   27.874   42.853
| 60> H  -22.486   27.637   41.578
| 61> H  -25.017   27.663   41.905
| 62> *
| 63> 
| 64>                          ****END OF INPUT****
================================================================================

                       *****************************
                       * Geometry Optimization Run *
                       *****************************

Geometry optimization settings:
Update method            Update   .... BFGS
Choice of coordinates    CoordSys .... Z-matrix Internals
Initial Hessian          InHess   .... Almoef's Model

Convergence Tolerances:
Energy Change            TolE     ....  5.0000e-06 Eh
Max. Gradient            TolMAXG  ....  3.0000e-04 Eh/bohr
RMS Gradient             TolRMSG  ....  1.0000e-04 Eh/bohr
Max. Displacement        TolMAXD  ....  4.0000e-03 bohr
RMS Displacement         TolRMSD  ....  2.0000e-03 bohr
Strict Convergence                ....  False
------------------------------------------------------------------------------
                        ORCA OPTIMIZATION COORDINATE SETUP
------------------------------------------------------------------------------

The optimization will be done in new redundant internal coordinates
Making redundant internal coordinates   ...  (new redundants) done
Evaluating the initial hessian          ...  (Almloef) done
Evaluating the coordinates              ...  done
Calculating the B-matrix                .... done
Calculating the G-matrix                .... done
Diagonalizing the G-matrix              .... done
Imposing constraints:
 Iter   0:  RMS(Cart)=    0.0003475122 RMS(Int)=    0.0000851461
 Iter   1:  RMS(Cart)=    0.0001724420 RMS(Int)=    0.0000462406
 Iter   2:  RMS(Cart)=    0.0000883114 RMS(Int)=    0.0000274216
 Iter   3:  RMS(Cart)=    0.0000470843 RMS(Int)=    0.0000180244
 Iter   4:  RMS(Cart)=    0.0000263559 RMS(Int)=    0.0000131539
 Iter   5:  RMS(Cart)=    0.0000155844 RMS(Int)=    0.0000105370
 Iter   6:  RMS(Cart)=    0.0000097620 RMS(Int)=    0.0000090782
 Iter   7:  RMS(Cart)=    0.0000064814 RMS(Int)=    0.0000082229
 Iter   8:  RMS(Cart)=    0.0000045636 RMS(Int)=    0.0000076827
 Iter   9:  RMS(Cart)=    0.0000034118 RMS(Int)=    0.0000073072
 Iter  10:  RMS(Cart)=    0.0000027076 RMS(Int)=    0.0000070187
 Iter  11:  RMS(Cart)=    0.0000022706 RMS(Int)=    0.0000067775
 Iter  12:  RMS(Cart)=    0.0000019930 RMS(Int)=    0.0000065633
 Iter  13:  RMS(Cart)=    0.0000018097 RMS(Int)=    0.0000063657
 Iter  14:  RMS(Cart)=    0.0000016819 RMS(Int)=    0.0000061792
 Iter  15:  RMS(Cart)=    0.0000015871 RMS(Int)=    0.0000060012
 Iter  16:  RMS(Cart)=    0.0000015121 RMS(Int)=    0.0000058300
 Iter  17:  RMS(Cart)=    0.0000014495 RMS(Int)=    0.0000056648
 Iter  18:  RMS(Cart)=    0.0000013949 RMS(Int)=    0.0000055051
 Iter  19:  RMS(Cart)=    0.0000013457 RMS(Int)=    0.0000053506
 Iter  20:  RMS(Cart)=    0.0000013005 RMS(Int)=    0.0000052010
 Iter  21:  RMS(Cart)=    0.0000012581 RMS(Int)=    0.0000050561
 Iter  22:  RMS(Cart)=    0.0000012181 RMS(Int)=    0.0000049157
 Iter  23:  RMS(Cart)=    0.0000011800 RMS(Int)=    0.0000047796
 Iter  24:  RMS(Cart)=    0.0000011436 RMS(Int)=    0.0000046478
 Iter  25:  RMS(Cart)=    0.0000011086 RMS(Int)=    0.0000045200
 Iter  26:  RMS(Cart)=    0.0000010749 RMS(Int)=    0.0000043962
 Iter  27:  RMS(Cart)=    0.0000010424 RMS(Int)=    0.0000042761
 Iter  28:  RMS(Cart)=    0.0000010111 RMS(Int)=    0.0000041597
 Iter  29:  RMS(Cart)=    0.0000009808 RMS(Int)=    0.0000040469
 Iter  30:  RMS(Cart)=    0.0000009515 RMS(Int)=    0.0000039375
 Iter  31:  RMS(Cart)=    0.0000009232 RMS(Int)=    0.0000038315
 Iter  32:  RMS(Cart)=    0.0000008958 RMS(Int)=    0.0000037286
 Iter  33:  RMS(Cart)=    0.0000008693 RMS(Int)=    0.0000036289
 Iter  34:  RMS(Cart)=    0.0000008436 RMS(Int)=    0.0000035322
 Iter  35:  RMS(Cart)=    0.0000008188 RMS(Int)=    0.0000034384
 Iter  36:  RMS(Cart)=    0.0000007947 RMS(Int)=    0.0000033474
 Iter  37:  RMS(Cart)=    0.0000007714 RMS(Int)=    0.0000032591
 Iter  38:  RMS(Cart)=    0.0000007488 RMS(Int)=    0.0000031735
 Iter  39:  RMS(Cart)=    0.0000007270 RMS(Int)=    0.0000030904
 Iter  40:  RMS(Cart)=    0.0000007058 RMS(Int)=    0.0000030098
 Iter  41:  RMS(Cart)=    0.0000006853 RMS(Int)=    0.0000029316
 Iter  42:  RMS(Cart)=    0.0000006654 RMS(Int)=    0.0000028557
 Iter  43:  RMS(Cart)=    0.0000006461 RMS(Int)=    0.0000027820
 Iter  44:  RMS(Cart)=    0.0000006274 RMS(Int)=    0.0000027106
 Iter  45:  RMS(Cart)=    0.0000006093 RMS(Int)=    0.0000026412
 Iter  46:  RMS(Cart)=    0.0000005918 RMS(Int)=    0.0000025739
 Iter  47:  RMS(Cart)=    0.0000005748 RMS(Int)=    0.0000025085
 Iter  48:  RMS(Cart)=    0.0000005584 RMS(Int)=    0.0000024451
 Iter  49:  RMS(Cart)=    0.0000005424 RMS(Int)=    0.0000023835
 Iter  50:  RMS(Cart)=    0.0000005269 RMS(Int)=    0.0000023237
 Iter  51:  RMS(Cart)=    0.0000005119 RMS(Int)=    0.0000022656
 Iter  52:  RMS(Cart)=    0.0000004974 RMS(Int)=    0.0000022092
 Iter  53:  RMS(Cart)=    0.0000004833 RMS(Int)=    0.0000021545
 Iter  54:  RMS(Cart)=    0.0000004696 RMS(Int)=    0.0000021013
 Iter  55:  RMS(Cart)=    0.0000004564 RMS(Int)=    0.0000020496
 Iter  56:  RMS(Cart)=    0.0000004435 RMS(Int)=    0.0000019995
 Iter  57:  RMS(Cart)=    0.0000004311 RMS(Int)=    0.0000019507
 Iter  58:  RMS(Cart)=    0.0000004190 RMS(Int)=    0.0000019034
 Iter  59:  RMS(Cart)=    0.0000004073 RMS(Int)=    0.0000018574
 Iter  60:  RMS(Cart)=    0.0000003959 RMS(Int)=    0.0000018128
 Iter  61:  RMS(Cart)=    0.0000003849 RMS(Int)=    0.0000017694
 Iter  62:  RMS(Cart)=    0.0000003742 RMS(Int)=    0.0000017272
 Iter  63:  RMS(Cart)=    0.0000003638 RMS(Int)=    0.0000016862
 Iter  64:  RMS(Cart)=    0.0000003538 RMS(Int)=    0.0000016464
 Iter  65:  RMS(Cart)=    0.0000003440 RMS(Int)=    0.0000016077
 Iter  66:  RMS(Cart)=    0.0000003345 RMS(Int)=    0.0000015701
 Iter  67:  RMS(Cart)=    0.0000003254 RMS(Int)=    0.0000015335
 Iter  68:  RMS(Cart)=    0.0000003164 RMS(Int)=    0.0000014979
 Iter  69:  RMS(Cart)=    0.0000003078 RMS(Int)=    0.0000014634
 Iter  70:  RMS(Cart)=    0.0000002994 RMS(Int)=    0.0000014298
 Iter  71:  RMS(Cart)=    0.0000002913 RMS(Int)=    0.0000013971
 Iter  72:  RMS(Cart)=    0.0000002834 RMS(Int)=    0.0000013654
 Iter  73:  RMS(Cart)=    0.0000002757 RMS(Int)=    0.0000013345
 Iter  74:  RMS(Cart)=    0.0000002682 RMS(Int)=    0.0000013045
 Iter  75:  RMS(Cart)=    0.0000002610 RMS(Int)=    0.0000012753
 Iter  76:  RMS(Cart)=    0.0000002540 RMS(Int)=    0.0000012468
 Iter  77:  RMS(Cart)=    0.0000002472 RMS(Int)=    0.0000012192
 Iter  78:  RMS(Cart)=    0.0000002406 RMS(Int)=    0.0000011923
 Iter  79:  RMS(Cart)=    0.0000002342 RMS(Int)=    0.0000011662
 Iter  80:  RMS(Cart)=    0.0000002279 RMS(Int)=    0.0000011407
 Iter  81:  RMS(Cart)=    0.0000002219 RMS(Int)=    0.0000011160
 Iter  82:  RMS(Cart)=    0.0000002160 RMS(Int)=    0.0000010919
 Iter  83:  RMS(Cart)=    0.0000002103 RMS(Int)=    0.0000010684
 Iter  84:  RMS(Cart)=    0.0000002048 RMS(Int)=    0.0000010456
 Iter  85:  RMS(Cart)=    0.0000001994 RMS(Int)=    0.0000010234
 Iter  86:  RMS(Cart)=    0.0000001941 RMS(Int)=    0.0000010018
 Iter  87:  RMS(Cart)=    0.0000001891 RMS(Int)=    0.0000009808
 Iter  88:  RMS(Cart)=    0.0000001841 RMS(Int)=    0.0000009603
 Iter  89:  RMS(Cart)=    0.0000001794 RMS(Int)=    0.0000009403
 Iter  90:  RMS(Cart)=    0.0000001747 RMS(Int)=    0.0000009209
 Iter  91:  RMS(Cart)=    0.0000001702 RMS(Int)=    0.0000009020
 Iter  92:  RMS(Cart)=    0.0000001658 RMS(Int)=    0.0000008836
 Iter  93:  RMS(Cart)=    0.0000001615 RMS(Int)=    0.0000008656
 Iter  94:  RMS(Cart)=    0.0000001574 RMS(Int)=    0.0000008482
 Iter  95:  RMS(Cart)=    0.0000001534 RMS(Int)=    0.0000008311
 Iter  96:  RMS(Cart)=    0.0000001494 RMS(Int)=    0.0000008146
 Iter  97:  RMS(Cart)=    0.0000001456 RMS(Int)=    0.0000007984
 Iter  98:  RMS(Cart)=    0.0000001419 RMS(Int)=    0.0000007826
 Iter  99:  RMS(Cart)=    0.0000001383 RMS(Int)=    0.0000007673
 RMS(Cart) too big - taking linear step, building new B-matrix and trying again
Imposing constraints:
 Iter   0:  RMS(Cart)=    0.0001724296 RMS(Int)=    0.0000462403
 Iter   1:  RMS(Cart)=    0.0000883058 RMS(Int)=    0.0000274212
 Iter   2:  RMS(Cart)=    0.0000470817 RMS(Int)=    0.0000180242
 Iter   3:  RMS(Cart)=    0.0000263547 RMS(Int)=    0.0000131540
 Iter   4:  RMS(Cart)=    0.0000155839 RMS(Int)=    0.0000105374
 Iter   5:  RMS(Cart)=    0.0000097618 RMS(Int)=    0.0000090788
 Iter   6:  RMS(Cart)=    0.0000064814 RMS(Int)=    0.0000082236
 Iter   7:  RMS(Cart)=    0.0000045637 RMS(Int)=    0.0000076835
 Iter   8:  RMS(Cart)=    0.0000034120 RMS(Int)=    0.0000073080
 Iter   9:  RMS(Cart)=    0.0000027079 RMS(Int)=    0.0000070195
 Iter  10:  RMS(Cart)=    0.0000022709 RMS(Int)=    0.0000067783
 Iter  11:  RMS(Cart)=    0.0000019933 RMS(Int)=    0.0000065640
 Iter  12:  RMS(Cart)=    0.0000018100 RMS(Int)=    0.0000063663
 Iter  13:  RMS(Cart)=    0.0000016822 RMS(Int)=    0.0000061798
 Iter  14:  RMS(Cart)=    0.0000015874 RMS(Int)=    0.0000060017
 Iter  15:  RMS(Cart)=    0.0000015124 RMS(Int)=    0.0000058305
 Iter  16:  RMS(Cart)=    0.0000014498 RMS(Int)=    0.0000056653
 Iter  17:  RMS(Cart)=    0.0000013952 RMS(Int)=    0.0000055056
 Iter  18:  RMS(Cart)=    0.0000013460 RMS(Int)=    0.0000053510
 Iter  19:  RMS(Cart)=    0.0000013007 RMS(Int)=    0.0000052014
 Iter  20:  RMS(Cart)=    0.0000012583 RMS(Int)=    0.0000050564
 Iter  21:  RMS(Cart)=    0.0000012183 RMS(Int)=    0.0000049160
 Iter  22:  RMS(Cart)=    0.0000011802 RMS(Int)=    0.0000047799
 Iter  23:  RMS(Cart)=    0.0000011438 RMS(Int)=    0.0000046481
 Iter  24:  RMS(Cart)=    0.0000011088 RMS(Int)=    0.0000045203
 Iter  25:  RMS(Cart)=    0.0000010751 RMS(Int)=    0.0000043964
 Iter  26:  RMS(Cart)=    0.0000010426 RMS(Int)=    0.0000042763
 Iter  27:  RMS(Cart)=    0.0000010112 RMS(Int)=    0.0000041599
 Iter  28:  RMS(Cart)=    0.0000009810 RMS(Int)=    0.0000040471
 Iter  29:  RMS(Cart)=    0.0000009517 RMS(Int)=    0.0000039377
 Iter  30:  RMS(Cart)=    0.0000009234 RMS(Int)=    0.0000038316
 Iter  31:  RMS(Cart)=    0.0000008960 RMS(Int)=    0.0000037288
 Iter  32:  RMS(Cart)=    0.0000008694 RMS(Int)=    0.0000036290
 Iter  33:  RMS(Cart)=    0.0000008438 RMS(Int)=    0.0000035323
 Iter  34:  RMS(Cart)=    0.0000008189 RMS(Int)=    0.0000034384
 Iter  35:  RMS(Cart)=    0.0000007948 RMS(Int)=    0.0000033474
 Iter  36:  RMS(Cart)=    0.0000007715 RMS(Int)=    0.0000032592
 Iter  37:  RMS(Cart)=    0.0000007489 RMS(Int)=    0.0000031735
 Iter  38:  RMS(Cart)=    0.0000007271 RMS(Int)=    0.0000030904
 Iter  39:  RMS(Cart)=    0.0000007059 RMS(Int)=    0.0000030098
 Iter  40:  RMS(Cart)=    0.0000006853 RMS(Int)=    0.0000029316
 Iter  41:  RMS(Cart)=    0.0000006654 RMS(Int)=    0.0000028557
 Iter  42:  RMS(Cart)=    0.0000006462 RMS(Int)=    0.0000027820
 Iter  43:  RMS(Cart)=    0.0000006275 RMS(Int)=    0.0000027106
 Iter  44:  RMS(Cart)=    0.0000006094 RMS(Int)=    0.0000026412
 Iter  45:  RMS(Cart)=    0.0000005919 RMS(Int)=    0.0000025738
 Iter  46:  RMS(Cart)=    0.0000005749 RMS(Int)=    0.0000025085
 Iter  47:  RMS(Cart)=    0.0000005584 RMS(Int)=    0.0000024450
 Iter  48:  RMS(Cart)=    0.0000005424 RMS(Int)=    0.0000023834
 Iter  49:  RMS(Cart)=    0.0000005270 RMS(Int)=    0.0000023236
 Iter  50:  RMS(Cart)=    0.0000005120 RMS(Int)=    0.0000022655
 Iter  51:  RMS(Cart)=    0.0000004974 RMS(Int)=    0.0000022092
 Iter  52:  RMS(Cart)=    0.0000004833 RMS(Int)=    0.0000021544
 Iter  53:  RMS(Cart)=    0.0000004697 RMS(Int)=    0.0000021012
 Iter  54:  RMS(Cart)=    0.0000004564 RMS(Int)=    0.0000020496
 Iter  55:  RMS(Cart)=    0.0000004436 RMS(Int)=    0.0000019994
 Iter  56:  RMS(Cart)=    0.0000004311 RMS(Int)=    0.0000019507
 Iter  57:  RMS(Cart)=    0.0000004190 RMS(Int)=    0.0000019033
 Iter  58:  RMS(Cart)=    0.0000004073 RMS(Int)=    0.0000018574
 Iter  59:  RMS(Cart)=    0.0000003959 RMS(Int)=    0.0000018127
 Iter  60:  RMS(Cart)=    0.0000003849 RMS(Int)=    0.0000017693
 Iter  61:  RMS(Cart)=    0.0000003742 RMS(Int)=    0.0000017271
 Iter  62:  RMS(Cart)=    0.0000003638 RMS(Int)=    0.0000016861
 Iter  63:  RMS(Cart)=    0.0000003538 RMS(Int)=    0.0000016463
 Iter  64:  RMS(Cart)=    0.0000003440 RMS(Int)=    0.0000016076
 Iter  65:  RMS(Cart)=    0.0000003346 RMS(Int)=    0.0000015700
 Iter  66:  RMS(Cart)=    0.0000003254 RMS(Int)=    0.0000015334
 Iter  67:  RMS(Cart)=    0.0000003165 RMS(Int)=    0.0000014978
 Iter  68:  RMS(Cart)=    0.0000003078 RMS(Int)=    0.0000014633
 Iter  69:  RMS(Cart)=    0.0000002994 RMS(Int)=    0.0000014297
 Iter  70:  RMS(Cart)=    0.0000002913 RMS(Int)=    0.0000013970
 Iter  71:  RMS(Cart)=    0.0000002834 RMS(Int)=    0.0000013653
 Iter  72:  RMS(Cart)=    0.0000002757 RMS(Int)=    0.0000013344
 Iter  73:  RMS(Cart)=    0.0000002682 RMS(Int)=    0.0000013044
 Iter  74:  RMS(Cart)=    0.0000002610 RMS(Int)=    0.0000012751
 Iter  75:  RMS(Cart)=    0.0000002540 RMS(Int)=    0.0000012467
 Iter  76:  RMS(Cart)=    0.0000002472 RMS(Int)=    0.0000012191
 Iter  77:  RMS(Cart)=    0.0000002406 RMS(Int)=    0.0000011922
 Iter  78:  RMS(Cart)=    0.0000002342 RMS(Int)=    0.0000011661
 Iter  79:  RMS(Cart)=    0.0000002279 RMS(Int)=    0.0000011406
 Iter  80:  RMS(Cart)=    0.0000002219 RMS(Int)=    0.0000011159
 Iter  81:  RMS(Cart)=    0.0000002160 RMS(Int)=    0.0000010918
 Iter  82:  RMS(Cart)=    0.0000002103 RMS(Int)=    0.0000010683
 Iter  83:  RMS(Cart)=    0.0000002048 RMS(Int)=    0.0000010455
 Iter  84:  RMS(Cart)=    0.0000001994 RMS(Int)=    0.0000010233
 Iter  85:  RMS(Cart)=    0.0000001941 RMS(Int)=    0.0000010017
 Iter  86:  RMS(Cart)=    0.0000001891 RMS(Int)=    0.0000009807
CONVERGED
Small eigenvalue found = 5.898e-03
Small eigenvalue found = 1.216e-02
Small eigenvalue found = 1.419e-02
The first mode is                       ....   91
The number of degrees of freedom        ....   81
Storing new coordinates                 .... done

    -----------------------------------------------------------------
                    Redundant Internal Coordinates


    -----------------------------------------------------------------
         Definition                    Initial Value    Approx d2E/dq
    -----------------------------------------------------------------
      1. B(C   1,C   0)                  1.5333         0.369027   
      2. B(C   2,C   1)                  1.5471         0.350825   
      3. B(C   3,C   2)                  1.5492         0.348147   
      4. B(O   4,C   0)                  1.4668         0.422031   
      5. B(O   4,C   3)                  1.4789         0.403699   
      6. B(H   5,C   0)                  1.0919         0.357632   
      7. B(H   6,C   1)                  1.0958         0.352561   
      8. B(H   7,C   1)                  1.0951         0.353431   
      9. B(H   8,C   2)                  1.0945         0.354166   
     10. B(H   9,C   2)                  1.0966         0.351438   
     11. B(H  10,C   3)                  1.0954         0.353010   
     12. B(H  11,C   3)                  1.0939         0.354989   
     13. B(H  13,C  12)                  1.0964         0.351763   
     14. B(H  14,C  12)                  1.0978         0.349905   
     15. B(O  15,C   0)                  1.5525         0.307993   
     16. B(O  15,C  12)                  1.5535         0.306944   
     17. B(C  16,C  12)                  1.5545         0.341443   
     18. B(C  17,C  16)                  1.5328         0.369748   
     19. B(C  18,C  17)                  1.5469         0.351126   
     20. B(C  19,C  18)                  1.5493         0.348070   
     21. B(O  20,C  16)                  1.4659         0.423412   
     22. B(O  20,C  19)                  1.4786         0.404083   
     23. B(H  21,C  16)                  1.0919         0.357619   
     24. B(O  22,C  17)                  1.5529         0.307587   
     25. B(H  23,C  17)                  1.0951         0.353368   
     26. B(H  24,C  18)                  1.0946         0.354009   
     27. B(H  25,C  18)                  1.0971         0.350837   
     28. B(H  26,C  19)                  1.0965         0.351593   
     29. B(H  27,C  19)                  1.0936         0.355352   
     30. B(H  28,O  22)                  1.0957         0.315862   
     31. A(O   4,C   0,H   5)          107.0148         0.328541   
     32. A(C   1,C   0,O  15)          111.3079         0.348740   
     33. A(C   1,C   0,O   4)          104.2514         0.367935   
     34. A(O   4,C   0,O  15)          110.4719         0.354548   
     35. A(C   1,C   0,H   5)          114.4421         0.323302   
     36. A(H   5,C   0,O  15)          109.1525         0.312058   
     37. A(C   0,C   1,C   2)          101.6780         0.358729   
     38. A(C   2,C   1,H   7)          112.8339         0.320016   
     39. A(C   2,C   1,H   6)          110.6698         0.319888   
     40. A(C   0,C   1,H   6)          110.0682         0.322546   
     41. A(H   6,C   1,H   7)          108.3679         0.289027   
     42. A(C   0,C   1,H   7)          113.1246         0.322677   
     43. A(C   1,C   2,H   8)          112.8310         0.320125   
     44. A(C   1,C   2,C   3)          103.1294         0.355196   
     45. A(C   1,C   2,H   9)          110.0792         0.319721   
     46. A(C   3,C   2,H   9)          110.6146         0.319321   
     47. A(C   3,C   2,H   8)          112.4029         0.319725   
     48. A(H   8,C   2,H   9)          107.7733         0.288977   
     49. A(O   4,C   3,H  10)          109.1303         0.325449   
     50. A(C   2,C   3,H  10)          112.5255         0.319554   
     51. A(C   2,C   3,O   4)          106.5262         0.361529   
     52. A(O   4,C   3,H  11)          107.1241         0.325748   
     53. A(H  10,C   3,H  11)          108.8726         0.289284   
     54. A(C   2,C   3,H  11)          112.4570         0.319846   
     55. A(C   0,O   4,C   3)          108.3122         0.371320   
     56. A(H  14,C  12,C  16)          107.7023         0.318083   
     57. A(H  13,C  12,H  14)          108.2124         0.288471   
     58. A(H  13,C  12,O  15)          109.3196         0.311052   
     59. A(H  14,C  12,O  15)          110.4621         0.310786   
     60. A(O  15,C  12,C  16)          112.6987         0.344016   
     61. A(H  13,C  12,C  16)          108.3208         0.318358   
     62. A(C   0,O  15,C  12)          115.1756         0.336084   
     63. A(C  12,C  16,C  17)          111.2643         0.357197   
     64. A(C  12,C  16,O  20)          110.4853         0.363276   
     65. A(C  17,C  16,O  20)          104.2624         0.368265   
     66. A(C  12,C  16,H  21)          109.1288         0.319217   
     67. A(C  17,C  16,H  21)          114.4252         0.323404   
     68. A(O  20,C  16,H  21)          107.0827         0.328717   
     69. A(C  16,C  17,C  18)          101.6969         0.358900   
     70. A(C  16,C  17,O  22)          110.0874         0.348777   
     71. A(C  18,C  17,O  22)          110.6578         0.345757   
     72. A(C  16,C  17,H  23)          113.1217         0.322770   
     73. A(C  18,C  17,H  23)          112.8037         0.320052   
     74. A(O  22,C  17,H  23)          108.3755         0.311386   
     75. A(C  17,C  18,C  19)          103.0981         0.355235   
     76. A(C  17,C  18,H  24)          112.8344         0.320147   
     77. A(C  19,C  18,H  24)          112.3856         0.319690   
     78. A(C  17,C  18,H  25)          110.0978         0.319677   
     79. A(C  19,C  18,H  25)          110.6001         0.319221   
     80. A(H  24,C  18,H  25)          107.8115         0.288879   
     81. A(C  18,C  19,O  20)          106.5152         0.361574   
     82. A(C  18,C  19,H  26)          112.4644         0.319333   
     83. A(O  20,C  19,H  26)          109.1246         0.325284   
     84. A(C  18,C  19,H  27)          112.4323         0.319888   
     85. A(O  20,C  19,H  27)          107.2086         0.325854   
     86. A(H  26,C  19,H  27)          108.8975         0.289148   
     87. A(C  16,O  20,C  19)          108.3385         0.371590   
     88. A(C  17,O  22,H  28)          109.6671         0.303283   
     89. D(H   7,C   1,C   0,H   5)     82.1542         0.010890   
     90. D(C   2,C   1,C   0,O  15)     79.0895         0.010890   
     91. D(H   7,C   1,C   0,O  15)    -42.1857         0.010890   
     92. D(H   6,C   1,C   0,O   4)     77.3241         0.010890   
     93. D(H   6,C   1,C   0,O  15)   -163.5718         0.010890   
     94. D(H   6,C   1,C   0,H   5)    -39.2320         0.010890   
     95. D(H   7,C   1,C   0,O   4)   -161.2898         0.010890   
     96. D(C   2,C   1,C   0,O   4)    -40.0146         0.010890 C 
     97. D(C   2,C   1,C   0,H   5)   -156.5706         0.010890   
     98. D(H   9,C   2,C   1,H   6)    160.0777         0.009912   
     99. D(H   8,C   2,C   1,C   0)    156.5478         0.009912   
    100. D(H   8,C   2,C   1,H   6)     39.6452         0.009912   
    101. D(C   3,C   2,C   1,C   0)     35.0268         0.009912 C 
    102. D(H   8,C   2,C   1,H   7)    -81.9749         0.009912   
    103. D(H   9,C   2,C   1,C   0)    -83.0197         0.009912   
    104. D(C   3,C   2,C   1,H   6)    -81.8758         0.009912   
    105. D(H   9,C   2,C   1,H   7)     38.4577         0.009912   
    106. D(C   3,C   2,C   1,H   7)    156.5041         0.009912   
    107. D(H  11,C   3,C   2,H   9)   -143.4626         0.009774   
    108. D(O   4,C   3,C   2,H   8)   -140.0069         0.009774   
    109. D(O   4,C   3,C   2,H   9)     99.4742         0.009774   
    110. D(H  10,C   3,C   2,C   1)   -137.7431         0.009774   
    111. D(H  10,C   3,C   2,H   8)    100.4467         0.009774   
    112. D(H  10,C   3,C   2,H   9)    -20.0723         0.009774   
    113. D(H  11,C   3,C   2,C   1)     98.8665         0.009774   
    114. D(O   4,C   3,C   2,C   1)    -18.1967         0.009774 C 
    115. D(H  11,C   3,C   2,H   8)    -22.9437         0.009774   
    116. D(C   3,O   4,C   0,C   1)     29.5920         0.014035 C 
    117. D(C   3,O   4,C   0,H   5)    151.2050         0.014035   
    118. D(C   3,O   4,C   0,O  15)    -90.0787         0.014035   
    119. D(C   0,O   4,C   3,C   2)     -6.8730         0.012866 C 
    120. D(C   0,O   4,C   3,H  10)    114.8547         0.012866   
    121. D(C   0,O   4,C   3,H  11)   -127.4269         0.012866   
    122. D(C   0,O  15,C  12,C  16)    105.0000         0.007747 C 
    123. D(C  12,O  15,C   0,O   4)    135.0000         0.007793 C 
    124. D(C  12,O  15,C   0,H   5)   -107.5932         0.007793   
    125. D(C   0,O  15,C  12,H  14)    -15.5221         0.007747   
    126. D(C   0,O  15,C  12,H  13)   -134.4892         0.007747   
    127. D(C  12,O  15,C   0,C   1)     19.6805         0.007793   
    128. D(C  17,C  16,C  12,H  13)     63.6228         0.009432   
    129. D(H  21,C  16,C  12,H  14)    179.5950         0.009432   
    130. D(C  17,C  16,C  12,O  15)   -175.2953         0.009432   
    131. D(O  20,C  16,C  12,H  13)    178.9379         0.009432   
    132. D(O  20,C  16,C  12,H  14)     62.1119         0.009432   
    133. D(O  20,C  16,C  12,O  15)    -59.9802         0.009432 C 
    134. D(C  17,C  16,C  12,H  14)    -53.2032         0.009432   
    135. D(H  21,C  16,C  12,H  13)    -63.5791         0.009432   
    136. D(H  21,C  16,C  12,O  15)     57.5029         0.009432   
    137. D(C  18,C  17,C  16,C  12)     79.1068         0.010930   
    138. D(C  18,C  17,C  16,O  20)    -39.9975         0.010930 C 
    139. D(C  18,C  17,C  16,H  21)   -156.6341         0.010930   
    140. D(O  22,C  17,C  16,C  12)   -163.5504         0.010930   
    141. D(O  22,C  17,C  16,O  20)     77.3453         0.010930   
    142. D(O  22,C  17,C  16,H  21)    -39.2913         0.010930   
    143. D(H  23,C  17,C  16,C  12)    -42.1425         0.010930   
    144. D(H  23,C  17,C  16,O  20)   -161.2469         0.010930   
    145. D(H  23,C  17,C  16,H  21)     82.1165         0.010930   
    146. D(H  24,C  18,C  17,H  23)    -82.0124         0.009928   
    147. D(C  19,C  18,C  17,O  22)    -81.8943         0.009928   
    148. D(C  19,C  18,C  17,H  23)    156.5056         0.009928   
    149. D(H  24,C  18,C  17,C  16)    156.5172         0.009928   
    150. D(C  19,C  18,C  17,C  16)     35.0352         0.009928 C 
    151. D(H  24,C  18,C  17,O  22)     39.5877         0.009928   
    152. D(H  25,C  18,C  17,C  16)    -82.9862         0.009928   
    153. D(H  25,C  18,C  17,O  22)    160.0844         0.009928   
    154. D(H  25,C  18,C  17,H  23)     38.4843         0.009928   
    155. D(H  27,C  19,C  18,H  25)   -143.4234         0.009770   
    156. D(O  20,C  19,C  18,H  24)   -140.0228         0.009770   
    157. D(O  20,C  19,C  18,H  25)     99.4313         0.009770   
    158. D(H  26,C  19,C  18,C  17)   -137.7345         0.009770   
    159. D(H  26,C  19,C  18,H  24)    100.4800         0.009770   
    160. D(H  26,C  19,C  18,H  25)    -20.0659         0.009770   
    161. D(H  27,C  19,C  18,C  17)     98.9080         0.009770   
    162. D(O  20,C  19,C  18,C  17)    -18.2373         0.009770 C 
    163. D(H  27,C  19,C  18,H  24)    -22.8775         0.009770   
    164. D(C  19,O  20,C  16,C  12)    -90.0931         0.014126   
    165. D(C  19,O  20,C  16,C  17)     29.5391         0.014126 C 
    166. D(C  19,O  20,C  16,H  21)    151.1713         0.014126   
    167. D(C  16,O  20,C  19,C  18)     -6.8104         0.012890 C 
    168. D(C  16,O  20,C  19,H  26)    114.8343         0.012890   
    169. D(C  16,O  20,C  19,H  27)   -127.3741         0.012890   
    170. D(H  28,O  22,C  17,C  16)    -55.7920         0.007775   
    171. D(H  28,O  22,C  17,C  18)     55.8359         0.007775   
    172. D(H  28,O  22,C  17,H  23)   -179.9905         0.007775   
    -----------------------------------------------------------------

Number of atoms                         .... 29
Number of degrees of freedom            .... 172

         *************************************************************
         *                GEOMETRY OPTIMIZATION CYCLE   1            *
         *************************************************************
---------------------------------
CARTESIAN COORDINATES (ANGSTROEM)
---------------------------------
  C    -21.047663   26.222340   46.250932
  C    -20.360590   27.558419   45.944520
  C    -20.328831   28.221901   47.341752
  C    -20.110026   27.021581   48.296397
  O    -20.472915   25.806836   47.534896
  H    -20.832552   25.428531   45.532754
  H    -19.343521   27.382536   45.576656
  H    -20.897437   28.157683   45.201621
  H    -19.542832   28.977851   47.435159
  H    -21.288862   28.709844   47.548744
  H    -20.733191   27.081290   49.195302
  H    -19.064084   26.912461   48.597556
  C    -23.161704   27.680190   45.720682
  H    -23.871662   28.151270   46.410671
  H    -22.357664   28.398129   45.512631
  O    -22.585698   26.394201   46.374699
  C    -23.898064   27.394119   44.381895
  C    -24.351111   28.694071   43.707845
  C    -23.036231   29.184852   43.057450
  C    -22.339457   27.866735   42.636441
  O    -22.982366   26.784892   43.412747
  H    -24.700077   26.675205   44.561188
  O    -25.418412   28.388035   42.622151
  H    -24.772867   29.419201   44.411858
  H    -23.206381   29.855758   42.209406
  H    -22.428993   29.723889   43.795228
  H    -21.264402   27.873663   42.852168
  H    -22.486745   27.636613   41.577507
  H    -25.017662   27.662904   41.905144

----------------------------
CARTESIAN COORDINATES (A.U.)
----------------------------
  NO LB      ZA    FRAG     MASS         X           Y           Z
   0 C     6.0000    0    12.011  -39.774319   49.553040   87.401595
   1 C     6.0000    0    12.011  -38.475940   52.077865   86.822559
   2 C     6.0000    0    12.011  -38.415923   53.331664   89.462946
   3 C     6.0000    0    12.011  -38.002442   51.063389   91.266963
   4 O     8.0000    0    15.999  -38.688203   48.767853   89.827936
   5 H     1.0000    0     1.008  -39.367818   48.052960   86.044434
   6 H     1.0000    0     1.008  -36.553957   51.745493   86.127397
   7 H     1.0000    0     1.008  -39.490433   53.210309   85.418685
   8 H     1.0000    0     1.008  -36.930600   54.760203   89.639459
   9 H     1.0000    0     1.008  -40.230118   54.253743   89.854105
  10 H     1.0000    0     1.008  -39.180054   51.176222   92.965647
  11 H     1.0000    0     1.008  -36.025899   50.857180   91.836071
  12 C     6.0000    0    12.011  -43.769278   52.307978   86.399569
  13 H     1.0000    0     1.008  -45.110904   53.198190   87.703457
  14 H     1.0000    0     1.008  -42.249861   53.664687   86.006408
  15 O     8.0000    0    15.999  -42.680783   49.877812   87.635481
  16 C     6.0000    0    12.011  -45.160796   51.767382   83.869628
  17 C     6.0000    0    12.011  -46.016931   54.223935   82.595858
  18 C     6.0000    0    12.011  -43.532167   55.151378   81.366789
  19 C     6.0000    0    12.011  -42.215455   52.660497   80.571196
  20 O     8.0000    0    15.999  -43.430379   50.616111   82.038202
  21 H     1.0000    0     1.008  -46.676380   50.408833   84.208441
  22 O     8.0000    0    15.999  -48.033838   53.645612   80.544193
  23 H     1.0000    0     1.008  -46.813934   55.594233   83.926248
  24 H     1.0000    0     1.008  -43.853705   56.419206   79.764218
  25 H     1.0000    0     1.008  -42.384654   56.170009   82.760986
  26 H     1.0000    0     1.008  -40.183895   52.673590   80.978863
  27 H     1.0000    0     1.008  -42.493789   52.225629   78.570102
  28 H     1.0000    0     1.008  -47.276529   52.275313   79.189246

--------------------------------
INTERNAL COORDINATES (ANGSTROEM)
--------------------------------
 C      0   0   0     0.000000000000     0.00000000     0.00000000
 C      1   0   0     1.533334275362     0.00000000     0.00000000
 C      2   1   0     1.547103422529   101.67907390     0.00000000
 C      3   2   1     1.549188819996   103.12737509    35.02687180
 O      1   2   3     1.466801281701   104.24948604   319.98542309
 H      1   2   3     1.091872245274   114.43876658   203.42640133
 H      2   1   3     1.095759553917   110.06782188   117.34000099
 H      2   1   3     1.095088580892   113.12442239   238.72597460
 H      3   2   1     1.094523183857   112.83161078   156.54780790
 H      3   2   1     1.096628013503   110.07982737   276.98070077
 H      4   3   2     1.095413164062   112.52534669   222.25678475
 H      4   3   2     1.093891219455   112.45670684    98.86663270
 C      8   2   1     2.371418351957   102.08474234    35.82582140
 H     13   8   2     1.096376304012   132.05504894    88.84021389
 H     13   8   2     1.097817835526    29.27437316   130.38154922
 O      1   2   3     1.552547583812   111.30349807    79.08752829
 C     13   8   2     1.554481585610   107.46653453   225.55529073
 C     17  13   8     1.532802987993   111.26310230   276.05144250
 C     18  17  13     1.546869742415   101.69720850    79.10617102
 C     19  18  17     1.549249495724   103.09754654    35.03519332
 O     17  13   8     1.465912002816   110.48549997    31.36522296
 H     17  13   8     1.091881861741   109.12982127   148.85051477
 O     18  17  13     1.552907273471   110.08722342   196.44932708
 H     18  17  13     1.095136977734   113.12157792   317.85710772
 H     19  18  17     1.094643777674   112.83457954   156.51719709
 H     19  18  17     1.097093432667   110.09793857   277.01394790
 H     20  19  18     1.096508093905   112.46437128   222.26542240
 H     20  19  18     1.093613277169   112.43219712    98.90797934
 H     23  18  17     1.095680154060   109.66712949   304.20785022

---------------------------
INTERNAL COORDINATES (A.U.)
---------------------------
 C      0   0   0     0.000000000000     0.00000000     0.00000000
 C      1   0   0     2.897581852189     0.00000000     0.00000000
 C      2   1   0     2.923601769431   101.67907390     0.00000000
 C      3   2   1     2.927542599525   103.12737509    35.02687180
 O      1   2   3     2.771852715300   104.24948604   319.98542309
 H      1   2   3     2.063339516798   114.43876658   203.42640133
 H      2   1   3     2.070685465531   110.06782188   117.34000099
 H      2   1   3     2.069417510270   113.12442239   238.72597460
 H      3   2   1     2.068349064717   112.83161078   156.54780790
 H      3   2   1     2.072326616307   110.07982737   276.98070077
 H      4   3   2     2.070030883569   112.52534669   222.25678475
 H      4   3   2     2.067154825070   112.45670684    98.86663270
 C      8   2   1     4.481331234154   102.08474234    35.82582140
 H     13   8   2     2.071850954304   132.05504894    88.84021389
 H     13   8   2     2.074575054079    29.27437316   130.38154922
 O      1   2   3     2.933889743286   111.30349807    79.08752829
 C     13   8   2     2.937544477026   107.46653453   225.55529073
 C     17  13   8     2.896577864563   111.26310230   276.05144250
 C     18  17  13     2.923160178014   101.69720850    79.10617102
 C     19  18  17     2.927657260033   103.09754654    35.03519332
 O     17  13   8     2.770172221750   110.48549997    31.36522296
 H     17  13   8     2.063357689287   109.12982127   148.85051477
 O     18  17  13     2.934569458235   110.08722342   196.44932708
 H     18  17  13     2.069508967047   113.12157792   317.85710772
 H     19  18  17     2.068576954004   112.83457954   156.51719709
 H     19  18  17     2.073206131063   110.09793857   277.01394790
 H     20  19  18     2.072100001109   112.46437128   222.26542240
 H     20  19  18     2.066629590269   112.43219712    98.90797934
 H     23  18  17     2.070535421545   109.66712949   304.20785022

---------------------
BASIS SET INFORMATION
---------------------
There are 3 groups of distinct atoms

 Group   1 Type C   : 10s4p contracted to 3s2p pattern {631/31}
 Group   2 Type O   : 10s4p contracted to 3s2p pattern {631/31}
 Group   3 Type H   : 4s contracted to 2s pattern {31}

Atom   0C    basis set group =>   1
Atom   1C    basis set group =>   1
Atom   2C    basis set group =>   1
Atom   3C    basis set group =>   1
Atom   4O    basis set group =>   2
Atom   5H    basis set group =>   3
Atom   6H    basis set group =>   3
Atom   7H    basis set group =>   3
Atom   8H    basis set group =>   3
Atom   9H    basis set group =>   3
Atom  10H    basis set group =>   3
Atom  11H    basis set group =>   3
Atom  12C    basis set group =>   1
Atom  13H    basis set group =>   3
Atom  14H    basis set group =>   3
Atom  15O    basis set group =>   2
Atom  16C    basis set group =>   1
Atom  17C    basis set group =>   1
Atom  18C    basis set group =>   1
Atom  19C    basis set group =>   1
Atom  20O    basis set group =>   2
Atom  21H    basis set group =>   3
Atom  22O    basis set group =>   2
Atom  23H    basis set group =>   3
Atom  24H    basis set group =>   3
Atom  25H    basis set group =>   3
Atom  26H    basis set group =>   3
Atom  27H    basis set group =>   3
Atom  28H    basis set group =>   3
------------------------------------------------------------------------------
                           ORCA GTO INTEGRAL CALCULATION
------------------------------------------------------------------------------

                         BASIS SET STATISTICS AND STARTUP INFO

 # of primitive gaussian shells          ...  246
 # of primitive gaussian functions       ...  350
 # of contracted shells                  ...   97
 # of contracted basis functions         ...  149
 Highest angular momentum                ...    1
 Maximum contraction depth               ...    6
 Integral package used                   ... LIBINT
 Integral threshhold            Thresh   ...  2.500e-11
 Primitive cut-off              TCut     ...  2.500e-12


------------------------------ INTEGRAL EVALUATION ----------------------------


 * One electron integrals 
 Pre-screening matrix                    ... done
 Shell pair data                         ... done (   0.006 sec)

-------------------------------------------------------------------------------
                                 ORCA SCF
-------------------------------------------------------------------------------

------------
SCF SETTINGS
------------
Hamiltonian:
 Density Functional     Method          .... DFT(GTOs)
 Exchange Functional    Exchange        .... B88
   X-Alpha parameter    XAlpha          ....  0.666667
   Becke's b parameter  XBeta           ....  0.004200
 Correlation Functional Correlation     .... LYP
 LDA part of GGA corr.  LDAOpt          .... VWN-5
 Gradients option       PostSCFGGA      .... off
 Hybrid DFT is turned on
   Fraction HF Exchange ScalHFX         ....  0.200000
   Scaling of DF-GGA-X  ScalDFX         ....  0.720000
   Scaling of DF-GGA-C  ScalDFC         ....  0.810000
   Scaling of DF-LDA-C  ScalLDAC        ....  1.000000
   Perturbative correction              ....  0.000000
   Density functional embedding theory  .... OFF
   NL short-range parameter             ....  4.800000


General Settings:
 Integral files         IntName         .... project_8052/ensemble_135_105
 Hartree-Fock type      HFTyp           .... RHF
 Total Charge           Charge          ....    0
 Multiplicity           Mult            ....    1
 Number of Electrons    NEL             ....  102
 Basis Dimension        Dim             ....  149
 Nuclear Repulsion      ENuc            ....    877.5167650362 Eh

Convergence Acceleration:
 DIIS                   CNVDIIS         .... on
   Start iteration      DIISMaxIt       ....    12
   Startup error        DIISStart       ....  0.200000
   # of expansion vecs  DIISMaxEq       ....     5
   Bias factor          DIISBfac        ....   1.050
   Max. coefficient     DIISMaxC        ....  10.000
 Newton-Raphson         CNVNR           .... off
 SOSCF                  CNVSOSCF        .... on
   Start iteration      SOSCFMaxIt      ....   150
   Startup grad/error   SOSCFStart      ....  0.003300
 Level Shifting         CNVShift        .... on
   Level shift para.    LevelShift      ....    0.2500
   Turn off err/grad.   ShiftErr        ....    0.0010
 Zerner damping         CNVZerner       .... off
 Static damping         CNVDamp         .... on
   Fraction old density DampFac         ....    0.7000
   Max. Damping (<1)    DampMax         ....    0.9800
   Min. Damping (>=0)   DampMin         ....    0.0000
   Turn off err/grad.   DampErr         ....    0.1000
 Fernandez-Rico         CNVRico         .... off

SCF Procedure:
 Maximum # iterations   MaxIter         ....   125
 SCF integral mode      SCFMode         .... Direct
   Integral package                     .... LIBINT
 Reset frequency        DirectResetFreq ....    20
 Integral Threshold     Thresh          ....  2.500e-11 Eh
 Primitive CutOff       TCut            ....  2.500e-12 Eh

Convergence Tolerance:
 Convergence Check Mode ConvCheckMode   .... Total+1el-Energy
 Convergence forced     ConvForced      .... 0
 Energy Change          TolE            ....  1.000e-08 Eh
 1-El. energy change                    ....  1.000e-05 Eh
 Orbital Gradient       TolG            ....  1.000e-05
 Orbital Rotation angle TolX            ....  1.000e-05
 DIIS Error             TolErr          ....  5.000e-07


Diagonalization of the overlap matrix:
Smallest eigenvalue                        ... 4.091e-03
Time for diagonalization                   ...    0.007 sec
Threshold for overlap eigenvalues          ... 1.000e-08
Number of eigenvalues below threshold      ... 0
Time for construction of square roots      ...    0.006 sec
Total time needed                          ...    0.013 sec

-------------------
DFT GRID GENERATION
-------------------

General Integration Accuracy     IntAcc      ...  4.340
Radial Grid Type                 RadialGrid  ... Gauss-Chebyshev
Angular Grid (max. acc.)         AngularGrid ... Lebedev-110
Angular grid pruning method      GridPruning ... 3 (G Style)
Weight generation scheme         WeightScheme... Becke
Basis function cutoff            BFCut       ...    1.0000e-11
Integration weight cutoff        WCut        ...    1.0000e-14
Grids for H and He will be reduced by one unit

# of grid points (after initial pruning)     ...  34472 (   0.0 sec)
# of grid points (after weights+screening)   ...  30887 (   0.5 sec)
nearest neighbour list constructed           ...    0.0 sec
Grid point re-assignment to atoms done       ...    0.0 sec
Grid point division into batches done        ...    0.0 sec
Reduced shell lists constructed in    0.6 sec

Total number of grid points                  ...    30887
Total number of batches                      ...      494
Average number of points per batch           ...       62
Average number of grid points per atom       ...     1065
Average number of shells per batch           ...    60.77 (62.65%)
Average number of basis functions per batch  ...    98.24 (65.93%)
Average number of large shells per batch     ...    43.41 (71.44%)
Average number of large basis fcns per batch ...    71.60 (72.88%)
Maximum spatial batch extension              ...  21.29, 20.09, 19.49 au
Average spatial batch extension              ...   3.39,  3.42,  3.33 au

Time for grid setup =    1.517 sec

------------------------------
INITIAL GUESS: MODEL POTENTIAL
------------------------------
Loading Hartree-Fock densities                     ... done
Calculating cut-offs                               ... done
Setting up the integral package                    ... done
Initializing the effective Hamiltonian             ... done
Starting the Coulomb interaction                   ... done (   0.6 sec)
Reading the grid                                   ... done
Mapping shells                                     ... done
Starting the XC term evaluation                    ... done (   0.7 sec)
  promolecular density results
     # of electrons  =    102.006557052
     EX              =    -83.680885716
     EC              =     -3.463093980
     EX+EC           =    -87.143979696
Transforming the Hamiltonian                       ... done (   1.3 sec)
Diagonalizing the Hamiltonian                      ... done (   0.0 sec)
Back transforming the eigenvectors                 ... done (   0.0 sec)
Now organizing SCF variables                       ... done
                      ------------------
                      INITIAL GUESS DONE (   4.7 sec)
                      ------------------
--------------
SCF ITERATIONS
--------------
ITER       Energy         Delta-E        Max-DP      RMS-DP      [F,P]     Damp
               ***  Starting incremental Fock matrix formation  ***
  0   -652.5221733696   0.000000000000 0.07447293  0.00311531  0.2358159 0.7000
  1   -652.6618832207  -0.139709851058 0.04029903  0.00213090  0.0901413 0.7000
                               ***Turning on DIIS***
  2   -652.7140457376  -0.052162516895 0.06114619  0.00338688  0.0305626 0.0000
  3   -652.8007191117  -0.086673374137 0.02996114  0.00140578  0.0513727 0.0000
  4   -652.8177736681  -0.017054556356 0.00871773  0.00043374  0.0084905 0.0000
  5   -652.8188102654  -0.001036597323 0.00263618  0.00013444  0.0036745 0.0000
                      *** Initiating the SOSCF procedure ***
                           *** Shutting down DIIS ***
                      *** Re-Reading the Fockian *** 
                      *** Removing any level shift *** 
ITER      Energy       Delta-E        Grad      Rot      Max-DP    RMS-DP
  6   -652.81887754  -0.0000672753  0.000231  0.000231  0.000928  0.000055
               *** Restarting incremental Fock matrix formation ***
  7   -652.81888011  -0.0000025696  0.000123  0.000306  0.000858  0.000036
  8   -652.81887747   0.0000026434  0.000230  0.000216  0.000597  0.000023
  9   -652.81888156  -0.0000040886  0.000025  0.000041  0.000209  0.000007
 10   -652.81888149   0.0000000607  0.000032  0.000025  0.000126  0.000004
 11   -652.81888162  -0.0000001236  0.000005  0.000009  0.000028  0.000001
 12   -652.81888162   0.0000000030  0.000008  0.000005  0.000018  0.000001
                  ***Gradient check signals convergence***
              ***Rediagonalizing the Fockian in SOSCF/NRSCF***

               *****************************************************
               *                     SUCCESS                       *
               *           SCF CONVERGED AFTER  13 CYCLES          *
               *****************************************************

Setting up the final grid:

General Integration Accuracy     IntAcc      ...  4.670
Radial Grid Type                 RadialGrid  ... Gauss-Chebyshev
Angular Grid (max. acc.)         AngularGrid ... Lebedev-302
Angular grid pruning method      GridPruning ... 3 (G Style)
Weight generation scheme         WeightScheme... Becke
Basis function cutoff            BFCut       ...    1.0000e-11
Integration weight cutoff        WCut        ...    1.0000e-14
Grids for H and He will be reduced by one unit

# of grid points (after initial pruning)     ... 135060 (   0.1 sec)
# of grid points (after weights+screening)   ... 118452 (   2.0 sec)
nearest neighbour list constructed           ...    0.0 sec
Grid point re-assignment to atoms done       ...    0.0 sec
Grid point division into batches done        ...    0.6 sec
Reduced shell lists constructed in    2.0 sec

Total number of grid points                  ...   118452
Total number of batches                      ...     1866
Average number of points per batch           ...       63
Average number of grid points per atom       ...     4085
Average number of shells per batch           ...    55.59 (57.31%)
Average number of basis functions per batch  ...    90.11 (60.48%)
Average number of large shells per batch     ...    38.95 (70.06%)
Average number of large basis fcns per batch ...    64.36 (71.42%)
Maximum spatial batch extension              ...  18.89, 17.61, 19.71 au
Average spatial batch extension              ...   2.21,  2.23,  2.23 au

Final grid set up in    4.2 sec
Final integration                            ... done (   8.9 sec)
Change in XC energy                          ...     0.000672399
Integrated number of electrons               ...   101.999900578
Previous integrated no of electrons          ...   102.008063847

----------------
TOTAL SCF ENERGY
----------------

Total Energy       :         -652.81820922 Eh          -17764.08658 eV

Components:
Nuclear Repulsion  :          877.51676504 Eh           23878.44513 eV
Electronic Energy  :        -1530.33497426 Eh          -41642.53171 eV
One Electron Energy:        -2632.36785598 Eh          -71630.37098 eV
Two Electron Energy:         1102.03288173 Eh           29987.83926 eV

Virial components:
Potential Energy   :        -1301.79971138 Eh          -35423.77106 eV
Kinetic Energy     :          648.98150216 Eh           17659.68447 eV
Virial Ratio       :            2.00591189


DFT components:
N(Alpha)           :       50.999950289115 electrons
N(Beta)            :       50.999950289115 electrons
N(Total)           :      101.999900578229 electrons
E(X)               :      -67.595650823832 Eh       
E(C)               :       -4.072776488460 Eh       
E(XC)              :      -71.668427312291 Eh       
DFET-embed. en.    :        0.000000000000 Eh       

---------------
SCF CONVERGENCE
---------------

  Last Energy change         ...   -2.7261e-09  Tolerance :   1.0000e-08
  Last MAX-Density change    ...    2.1651e-06  Tolerance :   1.0000e-07
  Last RMS-Density change    ...    9.1505e-08  Tolerance :   5.0000e-09
  Last Orbital Gradient      ...    2.6199e-07  Tolerance :   1.0000e-05
  Last Orbital Rotation      ...    4.2888e-07  Tolerance :   1.0000e-05

             **** THE GBW FILE WAS UPDATED (project_8052/ensemble_135_105.gbw) ****
             **** DENSITY FILE WAS UPDATED (project_8052/ensemble_135_105.scfp) ****
             **** ENERGY FILE WAS UPDATED (project_8052/ensemble_135_105.en.tmp) ****
             **** THE GBW FILE WAS UPDATED (project_8052/ensemble_135_105.gbw) ****
             **** DENSITY FILE WAS UPDATED (project_8052/ensemble_135_105.scfp) ****
----------------
ORBITAL ENERGIES
----------------

  NO   OCC          E(Eh)            E(eV) 
   0   2.0000     -19.151235      -521.1316 
   1   2.0000     -19.148527      -521.0579 
   2   2.0000     -19.146812      -521.0112 
   3   2.0000     -19.142896      -520.9047 
   4   2.0000     -10.281564      -279.7756 
   5   2.0000     -10.255904      -279.0773 
   6   2.0000     -10.241023      -278.6724 
   7   2.0000     -10.240378      -278.6549 
   8   2.0000     -10.235763      -278.5293 
   9   2.0000     -10.228423      -278.3296 
  10   2.0000     -10.204167      -277.6695 
  11   2.0000     -10.196339      -277.4565 
  12   2.0000     -10.195444      -277.4321 
  13   2.0000      -1.037164       -28.2227 
  14   2.0000      -1.031546       -28.0698 
  15   2.0000      -0.970493       -26.4085 
  16   2.0000      -0.960571       -26.1385 
  17   2.0000      -0.795446       -21.6452 
  18   2.0000      -0.793663       -21.5967 
  19   2.0000      -0.770794       -20.9744 
  20   2.0000      -0.732942       -19.9444 
  21   2.0000      -0.681219       -18.5369 
  22   2.0000      -0.610356       -16.6086 
  23   2.0000      -0.603837       -16.4312 
  24   2.0000      -0.594321       -16.1723 
  25   2.0000      -0.576759       -15.6944 
  26   2.0000      -0.525364       -14.2959 
  27   2.0000      -0.509390       -13.8612 
  28   2.0000      -0.505340       -13.7510 
  29   2.0000      -0.493122       -13.4185 
  30   2.0000      -0.468704       -12.7541 
  31   2.0000      -0.454088       -12.3564 
  32   2.0000      -0.445068       -12.1109 
  33   2.0000      -0.437203       -11.8969 
  34   2.0000      -0.427196       -11.6246 
  35   2.0000      -0.412204       -11.2166 
  36   2.0000      -0.402450       -10.9512 
  37   2.0000      -0.394951       -10.7472 
  38   2.0000      -0.382067       -10.3966 
  39   2.0000      -0.380525       -10.3546 
  40   2.0000      -0.371100       -10.0981 
  41   2.0000      -0.358304        -9.7499 
  42   2.0000      -0.353058        -9.6072 
  43   2.0000      -0.329096        -8.9551 
  44   2.0000      -0.319085        -8.6827 
  45   2.0000      -0.315103        -8.5744 
  46   2.0000      -0.299627        -8.1533 
  47   2.0000      -0.273373        -7.4388 
  48   2.0000      -0.267718        -7.2850 
  49   2.0000      -0.258278        -7.0281 
  50   2.0000      -0.240685        -6.5494 
  51   0.0000       0.029338         0.7983 
  52   0.0000       0.051794         1.4094 
  53   0.0000       0.067335         1.8323 
  54   0.0000       0.086677         2.3586 
  55   0.0000       0.093794         2.5523 
  56   0.0000       0.101892         2.7726 
  57   0.0000       0.107472         2.9245 
  58   0.0000       0.117553         3.1988 
  59   0.0000       0.125622         3.4183 
  60   0.0000       0.128060         3.4847 
  61   0.0000       0.141095         3.8394 
  62   0.0000       0.146072         3.9748 
  63   0.0000       0.149522         4.0687 
  64   0.0000       0.154250         4.1974 
  65   0.0000       0.159782         4.3479 
  66   0.0000       0.163345         4.4448 
  67   0.0000       0.172341         4.6896 
  68   0.0000       0.184646         5.0245 
  69   0.0000       0.193214         5.2576 
  70   0.0000       0.199928         5.4403 
  71   0.0000       0.205839         5.6012 
  72   0.0000       0.213249         5.8028 
  73   0.0000       0.221171         6.0184 
  74   0.0000       0.233253         6.3471 
  75   0.0000       0.261913         7.1270 
  76   0.0000       0.265890         7.2352 
  77   0.0000       0.272461         7.4140 
  78   0.0000       0.279914         7.6169 
  79   0.0000       0.290045         7.8925 
  80   0.0000       0.315571         8.5871 
  81   0.0000       0.517457        14.0807 
  82   0.0000       0.527349        14.3499 
  83   0.0000       0.532327        14.4854 
  84   0.0000       0.545492        14.8436 
  85   0.0000       0.558919        15.2090 
  86   0.0000       0.565381        15.3848 
  87   0.0000       0.572613        15.5816 
  88   0.0000       0.580974        15.8091 
  89   0.0000       0.587174        15.9778 
  90   0.0000       0.593832        16.1590 
  91   0.0000       0.612231        16.6597 
  92   0.0000       0.615953        16.7609 
  93   0.0000       0.627218        17.0675 
  94   0.0000       0.636061        17.3081 
  95   0.0000       0.640518        17.4294 
  96   0.0000       0.660276        17.9670 
  97   0.0000       0.670022        18.2322 
  98   0.0000       0.690088        18.7782 
  99   0.0000       0.703164        19.1341 
 100   0.0000       0.736468        20.0403 
 101   0.0000       0.745652        20.2902 
 102   0.0000       0.769901        20.9501 
 103   0.0000       0.807909        21.9843 
 104   0.0000       0.817979        22.2583 
 105   0.0000       0.821612        22.3572 
 106   0.0000       0.845296        23.0017 
 107   0.0000       0.851434        23.1687 
 108   0.0000       0.863325        23.4923 
 109   0.0000       0.869380        23.6570 
 110   0.0000       0.881601        23.9896 
 111   0.0000       0.889472        24.2038 
 112   0.0000       0.894497        24.3405 
 113   0.0000       0.899554        24.4781 
 114   0.0000       0.914756        24.8918 
 115   0.0000       0.919308        25.0156 
 116   0.0000       0.931692        25.3526 
 117   0.0000       0.947983        25.7959 
 118   0.0000       0.949335        25.8327 
 119   0.0000       0.955485        26.0001 
 120   0.0000       0.968721        26.3602 
 121   0.0000       0.997493        27.1432 
 122   0.0000       1.029987        28.0274 
 123   0.0000       1.036015        28.1914 
 124   0.0000       1.041836        28.3498 
 125   0.0000       1.065243        28.9867 
 126   0.0000       1.079277        29.3686 
 127   0.0000       1.115955        30.3667 
 128   0.0000       1.151015        31.3207 
 129   0.0000       1.182444        32.1759 
 130   0.0000       1.217331        33.1253 
 131   0.0000       1.225242        33.3405 
 132   0.0000       1.258733        34.2519 
 133   0.0000       1.310467        35.6596 
 134   0.0000       1.315167        35.7875 
 135   0.0000       1.357409        36.9370 
 136   0.0000       1.371702        37.3259 
 137   0.0000       1.404332        38.2138 
 138   0.0000       1.429803        38.9069 
 139   0.0000       1.473202        40.0879 
 140   0.0000       1.504112        40.9290 
 141   0.0000       1.540220        41.9115 
 142   0.0000       1.650043        44.9000 
 143   0.0000       1.680443        45.7272 
 144   0.0000       1.732616        47.1469 
 145   0.0000       1.848515        50.3007 
 146   0.0000       1.900070        51.7035 
 147   0.0000       2.055810        55.9414 
 148   0.0000       2.114422        57.5364 

                    ********************************
                    * MULLIKEN POPULATION ANALYSIS *
                    ********************************

-----------------------
MULLIKEN ATOMIC CHARGES
-----------------------
   0 C :    0.316469
   1 C :   -0.314429
   2 C :   -0.302676
   3 C :    0.002378
   4 O :   -0.495385
   5 H :    0.170409
   6 H :    0.153438
   7 H :    0.146377
   8 H :    0.145103
   9 H :    0.153342
  10 H :    0.152846
  11 H :    0.143793
  12 C :   -0.032909
  13 H :    0.143706
  14 H :    0.115089
  15 O :   -0.497345
  16 C :    0.078848
  17 C :    0.069422
  18 C :   -0.319207
  19 C :   -0.032918
  20 O :   -0.511161
  21 H :    0.181337
  22 O :   -0.591513
  23 H :    0.156759
  24 H :    0.171114
  25 H :    0.146710
  26 H :    0.149114
  27 H :    0.148215
  28 H :    0.353074
Sum of atomic charges:   -0.0000000

--------------------------------
MULLIKEN REDUCED ORBITAL CHARGES
--------------------------------
  0 C s       :     3.219559  s :     3.219559
      pz      :     0.800094  p :     2.463972
      px      :     0.691000
      py      :     0.972877
  1 C s       :     3.325228  s :     3.325228
      pz      :     0.966296  p :     2.989201
      px      :     1.069565
      py      :     0.953340
  2 C s       :     3.315632  s :     3.315632
      pz      :     0.907344  p :     2.987044
      px      :     1.081079
      py      :     0.998620
  3 C s       :     3.259547  s :     3.259547
      pz      :     0.940529  p :     2.738075
      px      :     1.057276
      py      :     0.740270
  4 O s       :     3.944016  s :     3.944016
      pz      :     1.319424  p :     4.551369
      px      :     1.719663
      py      :     1.512281
  5 H s       :     0.829591  s :     0.829591
  6 H s       :     0.846562  s :     0.846562
  7 H s       :     0.853623  s :     0.853623
  8 H s       :     0.854897  s :     0.854897
  9 H s       :     0.846658  s :     0.846658
 10 H s       :     0.847154  s :     0.847154
 11 H s       :     0.856207  s :     0.856207
 12 C s       :     3.299006  s :     3.299006
      pz      :     0.927269  p :     2.733903
      px      :     0.997703
      py      :     0.808931
 13 H s       :     0.856294  s :     0.856294
 14 H s       :     0.884911  s :     0.884911
 15 O s       :     3.955377  s :     3.955377
      pz      :     1.759147  p :     4.541967
      px      :     1.308135
      py      :     1.474686
 16 C s       :     3.276606  s :     3.276606
      pz      :     0.797276  p :     2.644546
      px      :     0.918807
      py      :     0.928464
 17 C s       :     3.301098  s :     3.301098
      pz      :     0.866757  p :     2.629480
      px      :     0.797517
      py      :     0.965206
 18 C s       :     3.320550  s :     3.320550
      pz      :     1.072609  p :     2.998657
      px      :     0.945924
      py      :     0.980124
 19 C s       :     3.269581  s :     3.269581
      pz      :     0.967982  p :     2.763337
      px      :     1.007642
      py      :     0.787714
 20 O s       :     3.946315  s :     3.946315
      pz      :     1.484725  p :     4.564846
      px      :     1.555682
      py      :     1.524438
 21 H s       :     0.818663  s :     0.818663
 22 O s       :     3.951594  s :     3.951594
      pz      :     1.416664  p :     4.639920
      px      :     1.559365
      py      :     1.663891
 23 H s       :     0.843241  s :     0.843241
 24 H s       :     0.828886  s :     0.828886
 25 H s       :     0.853290  s :     0.853290
 26 H s       :     0.850886  s :     0.850886
 27 H s       :     0.851785  s :     0.851785
 28 H s       :     0.646926  s :     0.646926


                     *******************************
                     * LOEWDIN POPULATION ANALYSIS *
                     *******************************

----------------------
LOEWDIN ATOMIC CHARGES
----------------------
   0 C :    0.193070
   1 C :   -0.234978
   2 C :   -0.220248
   3 C :   -0.027285
   4 O :   -0.304728
   5 H :    0.116882
   6 H :    0.120311
   7 H :    0.113546
   8 H :    0.115118
   9 H :    0.111614
  10 H :    0.108473
  11 H :    0.103358
  12 C :   -0.055837
  13 H :    0.109505
  14 H :    0.098620
  15 O :   -0.346027
  16 C :    0.017877
  17 C :    0.041454
  18 C :   -0.241913
  19 C :   -0.042886
  20 O :   -0.322631
  21 H :    0.128948
  22 O :   -0.438488
  23 H :    0.121192
  24 H :    0.130324
  25 H :    0.110856
  26 H :    0.101945
  27 H :    0.103299
  28 H :    0.288629

-------------------------------
LOEWDIN REDUCED ORBITAL CHARGES
-------------------------------
  0 C s       :     2.977399  s :     2.977399
      pz      :     0.917046  p :     2.829531
      px      :     0.833480
      py      :     1.079005
  1 C s       :     2.977824  s :     2.977824
      pz      :     1.074134  p :     3.257154
      px      :     1.114552
      py      :     1.068468
  2 C s       :     2.972626  s :     2.972626
      pz      :     1.034558  p :     3.247622
      px      :     1.129290
      py      :     1.083774
  3 C s       :     2.983202  s :     2.983202
      pz      :     1.039426  p :     3.044083
      px      :     1.120138
      py      :     0.884519
  4 O s       :     3.609956  s :     3.609956
      pz      :     1.381546  p :     4.694772
      px      :     1.752876
      py      :     1.560351
  5 H s       :     0.883118  s :     0.883118
  6 H s       :     0.879689  s :     0.879689
  7 H s       :     0.886454  s :     0.886454
  8 H s       :     0.884882  s :     0.884882
  9 H s       :     0.888386  s :     0.888386
 10 H s       :     0.891527  s :     0.891527
 11 H s       :     0.896642  s :     0.896642
 12 C s       :     3.003808  s :     3.003808
      pz      :     1.049543  p :     3.052029
      px      :     1.082556
      py      :     0.919930
 13 H s       :     0.890495  s :     0.890495
 14 H s       :     0.901380  s :     0.901380
 15 O s       :     3.661810  s :     3.661810
      pz      :     1.785682  p :     4.684217
      px      :     1.368708
      py      :     1.529826
 16 C s       :     2.971495  s :     2.971495
      pz      :     0.965771  p :     3.010628
      px      :     1.003003
      py      :     1.041854
 17 C s       :     2.974194  s :     2.974194
      pz      :     0.961641  p :     2.984352
      px      :     0.950889
      py      :     1.071822
 18 C s       :     2.982798  s :     2.982798
      pz      :     1.119458  p :     3.259115
      px      :     1.058878
      py      :     1.080780
 19 C s       :     2.983872  s :     2.983872
      pz      :     1.054731  p :     3.059014
      px      :     1.078197
      py      :     0.926086
 20 O s       :     3.603474  s :     3.603474
      pz      :     1.537370  p :     4.719156
      px      :     1.601267
      py      :     1.580519
 21 H s       :     0.871052  s :     0.871052
 22 O s       :     3.693659  s :     3.693659
      pz      :     1.459272  p :     4.744829
      px      :     1.599472
      py      :     1.686085
 23 H s       :     0.878808  s :     0.878808
 24 H s       :     0.869676  s :     0.869676
 25 H s       :     0.889144  s :     0.889144
 26 H s       :     0.898055  s :     0.898055
 27 H s       :     0.896701  s :     0.896701
 28 H s       :     0.711371  s :     0.711371


                      *****************************
                      * MAYER POPULATION ANALYSIS *
                      *****************************

  NA   - Mulliken gross atomic population
  ZA   - Total nuclear charge
  QA   - Mulliken gross atomic charge
  VA   - Mayer's total valence
  BVA  - Mayer's bonded valence
  FA   - Mayer's free valence

  ATOM       NA         ZA         QA         VA         BVA        FA
  0 C      5.6835     6.0000     0.3165     3.6459     3.6459     0.0000
  1 C      6.3144     6.0000    -0.3144     3.7364     3.7364     0.0000
  2 C      6.3027     6.0000    -0.3027     3.7510     3.7510    -0.0000
  3 C      5.9976     6.0000     0.0024     3.6612     3.6612    -0.0000
  4 O      8.4954     8.0000    -0.4954     1.8161     1.8161     0.0000
  5 H      0.8296     1.0000     0.1704     0.9263     0.9263     0.0000
  6 H      0.8466     1.0000     0.1534     0.9345     0.9345     0.0000
  7 H      0.8536     1.0000     0.1464     0.9289     0.9289    -0.0000
  8 H      0.8549     1.0000     0.1451     0.9365     0.9365    -0.0000
  9 H      0.8467     1.0000     0.1533     0.9339     0.9339    -0.0000
 10 H      0.8472     1.0000     0.1528     0.9255     0.9255     0.0000
 11 H      0.8562     1.0000     0.1438     0.9284     0.9284     0.0000
 12 C      6.0329     6.0000    -0.0329     3.6477     3.6477    -0.0000
 13 H      0.8563     1.0000     0.1437     0.9307     0.9307    -0.0000
 14 H      0.8849     1.0000     0.1151     0.9283     0.9283     0.0000
 15 O      8.4973     8.0000    -0.4973     1.8105     1.8105     0.0000
 16 C      5.9212     6.0000     0.0788     3.5592     3.5592    -0.0000
 17 C      5.9306     6.0000     0.0694     3.6363     3.6363    -0.0000
 18 C      6.3192     6.0000    -0.3192     3.6995     3.6995     0.0000
 19 C      6.0329     6.0000    -0.0329     3.6645     3.6645    -0.0000
 20 O      8.5112     8.0000    -0.5112     1.7785     1.7785     0.0000
 21 H      0.8187     1.0000     0.1813     0.9314     0.9314    -0.0000
 22 O      8.5915     8.0000    -0.5915     1.7635     1.7635     0.0000
 23 H      0.8432     1.0000     0.1568     0.9379     0.9379    -0.0000
 24 H      0.8289     1.0000     0.1711     0.9373     0.9373     0.0000
 25 H      0.8533     1.0000     0.1467     0.9332     0.9332     0.0000
 26 H      0.8509     1.0000     0.1491     0.9263     0.9263    -0.0000
 27 H      0.8518     1.0000     0.1482     0.9289     0.9289    -0.0000
 28 H      0.6469     1.0000     0.3531     0.8461     0.8461    -0.0000

  Mayer bond orders larger than 0.100000
B(  0-C ,  1-C ) :   0.9352 B(  0-C ,  4-O ) :   0.9186 B(  0-C ,  5-H ) :   0.9228 
B(  0-C , 15-O ) :   0.8383 B(  1-C ,  2-C ) :   0.9468 B(  1-C ,  6-H ) :   0.9329 
B(  1-C ,  7-H ) :   0.9102 B(  2-C ,  3-C ) :   0.9524 B(  2-C ,  8-H ) :   0.9448 
B(  2-C ,  9-H ) :   0.9413 B(  3-C ,  4-O ) :   0.8430 B(  3-C , 10-H ) :   0.9333 
B(  3-C , 11-H ) :   0.9387 B( 12-C , 13-H ) :   0.9222 B( 12-C , 14-H ) :   0.8916 
B( 12-C , 15-O ) :   0.8947 B( 12-C , 16-C ) :   0.8728 B( 16-C , 17-C ) :   0.8853 
B( 16-C , 20-O ) :   0.8602 B( 16-C , 21-H ) :   0.9248 B( 17-C , 18-C ) :   0.9162 
B( 17-C , 22-O ) :   0.8912 B( 17-C , 23-H ) :   0.9309 B( 18-C , 19-C ) :   0.9376 
B( 18-C , 24-H ) :   0.9354 B( 18-C , 25-H ) :   0.9286 B( 19-C , 20-O ) :   0.8548 
B( 19-C , 26-H ) :   0.9272 B( 19-C , 27-H ) :   0.9365 B( 22-O , 28-H ) :   0.8066 


-------
TIMINGS
-------

Total SCF time: 0 days 0 hours 2 min 50 sec 

Total time                  ....     170.048 sec
Sum of individual times     ....     168.566 sec  ( 99.1%)

Fock matrix formation       ....     159.180 sec  ( 93.6%)
  XC integration            ....      25.862 sec  ( 16.2% of F)
    Basis function eval.    ....       4.385 sec  ( 17.0% of XC)
    Density eval.           ....       1.976 sec  (  7.6% of XC)
    XC-Functional eval.     ....       0.979 sec  (  3.8% of XC)
    XC-Potential eval.      ....       2.609 sec  ( 10.1% of XC)
Diagonalization             ....       0.078 sec  (  0.0%)
Density matrix formation    ....       0.010 sec  (  0.0%)
Population analysis         ....       0.038 sec  (  0.0%)
Initial guess               ....       3.154 sec  (  1.9%)
Orbital Transformation      ....       0.000 sec  (  0.0%)
Orbital Orthonormalization  ....       0.000 sec  (  0.0%)
DIIS solution               ....       0.151 sec  (  0.1%)
SOSCF solution              ....       0.223 sec  (  0.1%)
Grid generation             ....       5.732 sec  (  3.4%)

-------------------------   --------------------
FINAL SINGLE POINT ENERGY      -652.818209219402
-------------------------   --------------------

------------------------------------------------------------------------------
                         ORCA SCF GRADIENT CALCULATION
------------------------------------------------------------------------------

Gradient of the Kohn-Sham DFT energy:
Kohn-Sham wavefunction type      ... RKS
Hartree-Fock exchange scaling    ...    0.200
Number of operators              ...    1
Number of atoms                  ...   29
Basis set dimensions             ...  149
Integral neglect threshold       ... 2.5e-11
Integral primitive cutoff        ... 2.5e-12

Nuclear repulsion gradient       ... done
One Electron Gradient            ... done
Pre-screening matrix             ... done
Starting the two electron gradient:
Two electron gradient done
Exchange-correlation gradient    ... done

------------------
CARTESIAN GRADIENT
------------------

   1   C   :    0.011643445   -0.005620257   -0.004410438
   2   C   :   -0.005110934    0.000950699   -0.004350823
   3   C   :   -0.002173226   -0.000115186   -0.001087552
   4   C   :    0.002009711   -0.003883142   -0.003539466
   5   O   :    0.014420820   -0.007511322    0.018824224
   6   H   :    0.007503890    0.001198279   -0.003353203
   7   H   :    0.000446226    0.002130301   -0.000230314
   8   H   :   -0.014100046    0.004006548   -0.000890368
   9   H   :   -0.000477369    0.000514174    0.000180138
  10   H   :   -0.000791630    0.000472786   -0.000584424
  11   H   :   -0.000488882    0.000695348    0.001454073
  12   H   :   -0.000296868    0.000793368    0.000770304
  13   C   :   -0.001949803    0.020284675    0.000667129
  14   H   :   -0.001904430    0.007497172   -0.006145804
  15   H   :    0.012690388    0.004686477   -0.006812705
  16   O   :   -0.013606059   -0.031240267    0.016871130
  17   C   :   -0.006083467    0.008352356   -0.017885759
  18   C   :    0.009009391    0.013448417    0.027563410
  19   C   :    0.001102439    0.002003173    0.003856627
  20   C   :   -0.002238180   -0.001273245    0.000090843
  21   O   :   -0.001292823   -0.001243767    0.002792725
  22   H   :    0.001266649   -0.001326060    0.003321412
  23   O   :   -0.041061574    0.027862252    0.014113189
  24   H   :    0.008360143    0.002141749    0.008281152
  25   H   :    0.002606934    0.000594957   -0.001768736
  26   H   :    0.001029707   -0.001418608    0.000682101
  27   H   :    0.000856979    0.000223218    0.001467089
  28   H   :   -0.000908706   -0.000038661    0.000801789
  29   H   :    0.019537276   -0.044185435   -0.050677744

Difference to translation invariance:
           :    0.0000000001   -0.0000000001   -0.0000000001

Norm of the cartesian gradient     ...    0.1122422437
RMS gradient                       ...    0.0120336316
MAX gradient                       ...    0.0506777444

-------
TIMINGS
-------

Total SCF gradient time            ...       44.003 sec

One electron gradient       ....       0.328 sec  (  0.7%)
Prescreening matrices       ....       0.061 sec  (  0.1%)
Two electron gradient       ....      20.684 sec  ( 47.0%)
XC gradient                 ....      12.148 sec  ( 27.6%)
------------------------------------------------------------------------------
                         ORCA GEOMETRY RELAXATION STEP
------------------------------------------------------------------------------

Reading the OPT-File                    .... done
Getting information on internals        .... done
Copying old internal coords+grads       .... done
Making the new internal coordinates     .... (new redundants).... done
Validating the new internal coordinates .... (new redundants).... done
Calculating the B-matrix                .... done
Calculating the G,G- and P matrices     .... done
Transforming gradient to internals      .... done
Projecting the internal gradient        .... done
Number of atoms                         ....  29
Number of internal coordinates          .... 172
Current Energy                          ....  -652.818209219 Eh
[...]
  29   2.0000      -0.491682       -13.3793 
  30   2.0000      -0.480050       -13.0628 
  31   2.0000      -0.461666       -12.5626 
  32   2.0000      -0.454704       -12.3731 
  33   2.0000      -0.441979       -12.0269 
  34   2.0000      -0.431017       -11.7286 
  35   2.0000      -0.409902       -11.1540 
  36   2.0000      -0.403735       -10.9862 
  37   2.0000      -0.399024       -10.8580 
  38   2.0000      -0.381600       -10.3839 
  39   2.0000      -0.377535       -10.2732 
  40   2.0000      -0.365900        -9.9567 
  41   2.0000      -0.359162        -9.7733 
  42   2.0000      -0.355782        -9.6813 
  43   2.0000      -0.336291        -9.1509 
  44   2.0000      -0.312670        -8.5082 
  45   2.0000      -0.311399        -8.4736 
  46   2.0000      -0.290107        -7.8942 
  47   2.0000      -0.275660        -7.5011 
  48   2.0000      -0.268387        -7.3032 
  49   2.0000      -0.255884        -6.9630 
  50   2.0000      -0.237678        -6.4675 
  51   0.0000       0.050549         1.3755 
  52   0.0000       0.075586         2.0568 
  53   0.0000       0.083713         2.2780 
  54   0.0000       0.097574         2.6551 
  55   0.0000       0.102131         2.7791 
  56   0.0000       0.109176         2.9708 
  57   0.0000       0.116087         3.1589 
  58   0.0000       0.124037         3.3752 
  59   0.0000       0.131963         3.5909 
  60   0.0000       0.135446         3.6857 
  61   0.0000       0.144670         3.9367 
  62   0.0000       0.154526         4.2049 
  63   0.0000       0.156520         4.2591 
  64   0.0000       0.158880         4.3234 
  65   0.0000       0.162922         4.4333 
  66   0.0000       0.173426         4.7192 
  67   0.0000       0.181170         4.9299 
  68   0.0000       0.190213         5.1760 
  69   0.0000       0.204967         5.5774 
  70   0.0000       0.208018         5.6605 
  71   0.0000       0.219431         5.9710 
  72   0.0000       0.224583         6.1112 
  73   0.0000       0.232465         6.3257 
  74   0.0000       0.241436         6.5698 
  75   0.0000       0.262681         7.1479 
  76   0.0000       0.272390         7.4121 
  77   0.0000       0.281190         7.6516 
  78   0.0000       0.284587         7.7440 
  79   0.0000       0.302848         8.2409 
  80   0.0000       0.328063         8.9270 
  81   0.0000       0.517536        14.0829 
  82   0.0000       0.522057        14.2059 
  83   0.0000       0.537020        14.6130 
  84   0.0000       0.549904        14.9637 
  85   0.0000       0.553649        15.0655 
  86   0.0000       0.570444        15.5226 
  87   0.0000       0.575322        15.6553 
  88   0.0000       0.585251        15.9255 
  89   0.0000       0.588235        16.0067 
  90   0.0000       0.598028        16.2732 
  91   0.0000       0.605995        16.4900 
  92   0.0000       0.618420        16.8281 
  93   0.0000       0.625367        17.0171 
  94   0.0000       0.635403        17.2902 
  95   0.0000       0.646863        17.6020 
  96   0.0000       0.651602        17.7310 
  97   0.0000       0.672677        18.3045 
  98   0.0000       0.697773        18.9874 
  99   0.0000       0.715041        19.4573 
 100   0.0000       0.737454        20.0672 
 101   0.0000       0.753696        20.5091 
 102   0.0000       0.781274        21.2595 
 103   0.0000       0.815323        22.1861 
 104   0.0000       0.824837        22.4450 
 105   0.0000       0.837798        22.7976 
 106   0.0000       0.847716        23.0675 
 107   0.0000       0.858918        23.3724 
 108   0.0000       0.865716        23.5573 
 109   0.0000       0.875918        23.8349 
 110   0.0000       0.885651        24.0998 
 111   0.0000       0.892408        24.2836 
 112   0.0000       0.896760        24.4021 
 113   0.0000       0.901731        24.5373 
 114   0.0000       0.910792        24.7839 
 115   0.0000       0.922490        25.1022 
 116   0.0000       0.934259        25.4225 
 117   0.0000       0.940345        25.5881 
 118   0.0000       0.948112        25.7994 
 119   0.0000       0.956185        26.0191 
 120   0.0000       0.965169        26.2636 
 121   0.0000       0.989778        26.9332 
 122   0.0000       1.018619        27.7180 
 123   0.0000       1.026643        27.9364 
 124   0.0000       1.041140        28.3309 
 125   0.0000       1.073477        29.2108 
 126   0.0000       1.090495        29.6739 
 127   0.0000       1.095684        29.8151 
 128   0.0000       1.119580        30.4653 
 129   0.0000       1.185175        32.2502 
 130   0.0000       1.202664        32.7261 
 131   0.0000       1.221520        33.2393 
 132   0.0000       1.248089        33.9622 
 133   0.0000       1.296223        35.2720 
 134   0.0000       1.332029        36.2464 
 135   0.0000       1.351631        36.7798 
 136   0.0000       1.374939        37.4140 
 137   0.0000       1.406086        38.2615 
 138   0.0000       1.444834        39.3159 
 139   0.0000       1.505463        40.9657 
 140   0.0000       1.513633        41.1881 
 141   0.0000       1.599670        43.5292 
 142   0.0000       1.656839        45.0849 
 143   0.0000       1.694059        46.0977 
 144   0.0000       1.745422        47.4953 
 145   0.0000       1.901400        51.7397 
 146   0.0000       1.924962        52.3809 
 147   0.0000       2.053529        55.8794 
 148   0.0000       2.114362        57.5347 

                    ********************************
                    * MULLIKEN POPULATION ANALYSIS *
                    ********************************

-----------------------
MULLIKEN ATOMIC CHARGES
-----------------------
   0 C :    0.325295
   1 C :   -0.303883
   2 C :   -0.306608
   3 C :    0.000892
   4 O :   -0.494726
   5 H :    0.166186
   6 H :    0.156283
   7 H :    0.142844
   8 H :    0.144315
   9 H :    0.148768
  10 H :    0.150072
  11 H :    0.142934
  12 C :   -0.011992
  13 H :    0.148263
  14 H :    0.119029
  15 O :   -0.517801
  16 C :    0.065945
  17 C :    0.080227
  18 C :   -0.298914
  19 C :   -0.033130
  20 O :   -0.517933
  21 H :    0.174045
  22 O :   -0.601584
  23 H :    0.152549
  24 H :    0.167164
  25 H :    0.139913
  26 H :    0.144573
  27 H :    0.149869
  28 H :    0.367404
Sum of atomic charges:   -0.0000000

--------------------------------
MULLIKEN REDUCED ORBITAL CHARGES
--------------------------------
  0 C s       :     3.185296  s :     3.185296
      pz      :     0.802232  p :     2.489409
      px      :     0.702569
      py      :     0.984608
  1 C s       :     3.319883  s :     3.319883
      pz      :     0.975268  p :     2.984000
      px      :     1.033947
      py      :     0.974786
  2 C s       :     3.318317  s :     3.318317
      pz      :     0.913480  p :     2.988290
      px      :     1.081281
      py      :     0.993529
  3 C s       :     3.259168  s :     3.259168
      pz      :     0.921946  p :     2.739940
      px      :     1.041043
      py      :     0.776950
  4 O s       :     3.933516  s :     3.933516
      pz      :     1.261664  p :     4.561210
      px      :     1.758093
      py      :     1.541453
  5 H s       :     0.833814  s :     0.833814
  6 H s       :     0.843717  s :     0.843717
  7 H s       :     0.857156  s :     0.857156
  8 H s       :     0.855685  s :     0.855685
  9 H s       :     0.851232  s :     0.851232
 10 H s       :     0.849928  s :     0.849928
 11 H s       :     0.857066  s :     0.857066
 12 C s       :     3.260779  s :     3.260779
      pz      :     0.945982  p :     2.751214
      px      :     0.996330
      py      :     0.808901
 13 H s       :     0.851737  s :     0.851737
 14 H s       :     0.880971  s :     0.880971
 15 O s       :     3.911425  s :     3.911425
      pz      :     1.780600  p :     4.606376
      px      :     1.341733
      py      :     1.484043
 16 C s       :     3.271448  s :     3.271448
      pz      :     0.809710  p :     2.662607
      px      :     0.886582
      py      :     0.966315
 17 C s       :     3.263900  s :     3.263900
      pz      :     0.879495  p :     2.655873
      px      :     0.826493
      py      :     0.949886
 18 C s       :     3.314521  s :     3.314521
      pz      :     1.064543  p :     2.984393
      px      :     0.949994
      py      :     0.969856
 19 C s       :     3.270634  s :     3.270634
      pz      :     0.944581  p :     2.762497
      px      :     1.026696
      py      :     0.791219
 20 O s       :     3.947224  s :     3.947224
      pz      :     1.453648  p :     4.570709
      px      :     1.586937
      py      :     1.530123
 21 H s       :     0.825955  s :     0.825955
 22 O s       :     3.919535  s :     3.919535
      pz      :     1.575214  p :     4.682048
      px      :     1.601879
      py      :     1.504955
 23 H s       :     0.847451  s :     0.847451
 24 H s       :     0.832836  s :     0.832836
 25 H s       :     0.860087  s :     0.860087
 26 H s       :     0.855427  s :     0.855427
 27 H s       :     0.850131  s :     0.850131
 28 H s       :     0.632596  s :     0.632596


                     *******************************
                     * LOEWDIN POPULATION ANALYSIS *
                     *******************************

----------------------
LOEWDIN ATOMIC CHARGES
----------------------
   0 C :    0.188350
   1 C :   -0.232551
   2 C :   -0.220684
   3 C :   -0.027855
   4 O :   -0.308605
   5 H :    0.111004
   6 H :    0.122846
   7 H :    0.111395
   8 H :    0.115275
   9 H :    0.109059
  10 H :    0.106724
  11 H :    0.103007
  12 C :   -0.041105
  13 H :    0.110061
  14 H :    0.090876
  15 O :   -0.324653
  16 C :    0.007930
  17 C :    0.034765
  18 C :   -0.241993
  19 C :   -0.040199
  20 O :   -0.327512
  21 H :    0.122774
  22 O :   -0.413515
  23 H :    0.115729
  24 H :    0.128776
  25 H :    0.110131
  26 H :    0.100807
  27 H :    0.104347
  28 H :    0.284816

-------------------------------
LOEWDIN REDUCED ORBITAL CHARGES
-------------------------------
  0 C s       :     2.950388  s :     2.950388
      pz      :     0.924240  p :     2.861262
      px      :     0.864510
      py      :     1.072512
  1 C s       :     2.977331  s :     2.977331
      pz      :     1.071053  p :     3.255220
      px      :     1.106230
      py      :     1.077937
  2 C s       :     2.973047  s :     2.973047
      pz      :     1.036426  p :     3.247637
      px      :     1.128034
      py      :     1.083178
  3 C s       :     2.982655  s :     2.982655
      pz      :     1.026263  p :     3.045200
      px      :     1.104161
      py      :     0.914776
  4 O s       :     3.598019  s :     3.598019
      pz      :     1.333678  p :     4.710587
      px      :     1.788426
      py      :     1.588482
  5 H s       :     0.888996  s :     0.888996
  6 H s       :     0.877154  s :     0.877154
  7 H s       :     0.888605  s :     0.888605
  8 H s       :     0.884725  s :     0.884725
  9 H s       :     0.890941  s :     0.890941
 10 H s       :     0.893276  s :     0.893276
 11 H s       :     0.896993  s :     0.896993
 12 C s       :     2.973947  s :     2.973947
      pz      :     1.060314  p :     3.067159
      px      :     1.072126
      py      :     0.934719
 13 H s       :     0.889939  s :     0.889939
 14 H s       :     0.909124  s :     0.909124
 15 O s       :     3.572442  s :     3.572442
      pz      :     1.802032  p :     4.752211
      px      :     1.402373
      py      :     1.547806
 16 C s       :     2.969847  s :     2.969847
      pz      :     0.976744  p :     3.022223
      px      :     0.981924
      py      :     1.063555
 17 C s       :     2.952448  s :     2.952448
      pz      :     0.983312  p :     3.012788
      px      :     0.970958
      py      :     1.058517
 18 C s       :     2.985115  s :     2.985115
      pz      :     1.117404  p :     3.256878
      px      :     1.061898
      py      :     1.077576
 19 C s       :     2.984621  s :     2.984621
      pz      :     1.034022  p :     3.055578
      px      :     1.096229
      py      :     0.925327
 20 O s       :     3.606499  s :     3.606499
      pz      :     1.506429  p :     4.721013
      px      :     1.631648
      py      :     1.582935
 21 H s       :     0.877226  s :     0.877226
 22 O s       :     3.612962  s :     3.612962
      pz      :     1.612678  p :     4.800553
      px      :     1.647395
      py      :     1.540480
 23 H s       :     0.884271  s :     0.884271
 24 H s       :     0.871224  s :     0.871224
 25 H s       :     0.889869  s :     0.889869
 26 H s       :     0.899193  s :     0.899193
 27 H s       :     0.895653  s :     0.895653
 28 H s       :     0.715184  s :     0.715184


                      *****************************
                      * MAYER POPULATION ANALYSIS *
                      *****************************

  NA   - Mulliken gross atomic population
  ZA   - Total nuclear charge
  QA   - Mulliken gross atomic charge
  VA   - Mayer's total valence
  BVA  - Mayer's bonded valence
  FA   - Mayer's free valence

  ATOM       NA         ZA         QA         VA         BVA        FA
  0 C      5.6747     6.0000     0.3253     3.6704     3.6704     0.0000
  1 C      6.3039     6.0000    -0.3039     3.7278     3.7278    -0.0000
  2 C      6.3066     6.0000    -0.3066     3.7579     3.7579    -0.0000
  3 C      5.9991     6.0000     0.0009     3.6663     3.6663    -0.0000
  4 O      8.4947     8.0000    -0.4947     1.7945     1.7945    -0.0000
  5 H      0.8338     1.0000     0.1662     0.9275     0.9275    -0.0000
  6 H      0.8437     1.0000     0.1563     0.9322     0.9322    -0.0000
  7 H      0.8572     1.0000     0.1428     0.9403     0.9403    -0.0000
  8 H      0.8557     1.0000     0.1443     0.9371     0.9371    -0.0000
  9 H      0.8512     1.0000     0.1488     0.9332     0.9332     0.0000
 10 H      0.8499     1.0000     0.1501     0.9260     0.9260     0.0000
 11 H      0.8571     1.0000     0.1429     0.9289     0.9289    -0.0000
 12 C      6.0120     6.0000    -0.0120     3.6403     3.6403     0.0000
 13 H      0.8517     1.0000     0.1483     0.9286     0.9286    -0.0000
 14 H      0.8810     1.0000     0.1190     0.9396     0.9396    -0.0000
 15 O      8.5178     8.0000    -0.5178     1.7603     1.7603    -0.0000
 16 C      5.9341     6.0000     0.0659     3.5841     3.5841    -0.0000
 17 C      5.9198     6.0000     0.0802     3.6360     3.6360    -0.0000
 18 C      6.2989     6.0000    -0.2989     3.6885     3.6885    -0.0000
 19 C      6.0331     6.0000    -0.0331     3.6660     3.6660    -0.0000
 20 O      8.5179     8.0000    -0.5179     1.7765     1.7765    -0.0000
 21 H      0.8260     1.0000     0.1740     0.9324     0.9324    -0.0000
 22 O      8.6016     8.0000    -0.6016     1.7454     1.7454     0.0000
 23 H      0.8475     1.0000     0.1525     0.9356     0.9356    -0.0000
 24 H      0.8328     1.0000     0.1672     0.9385     0.9385     0.0000
 25 H      0.8601     1.0000     0.1399     0.9370     0.9370     0.0000
 26 H      0.8554     1.0000     0.1446     0.9271     0.9271    -0.0000
 27 H      0.8501     1.0000     0.1499     0.9280     0.9280    -0.0000
 28 H      0.6326     1.0000     0.3674     0.8309     0.8309    -0.0000

  Mayer bond orders larger than 0.100000
B(  0-C ,  1-C ) :   0.9330 B(  0-C ,  4-O ) :   0.9187 B(  0-C ,  5-H ) :   0.9261 
B(  0-C , 15-O ) :   0.8478 B(  1-C ,  2-C ) :   0.9476 B(  1-C ,  6-H ) :   0.9341 
B(  1-C ,  7-H ) :   0.9253 B(  2-C ,  3-C ) :   0.9513 B(  2-C ,  8-H ) :   0.9456 
B(  2-C ,  9-H ) :   0.9441 B(  3-C ,  4-O ) :   0.8453 B(  3-C , 10-H ) :   0.9342 
B(  3-C , 11-H ) :   0.9396 B( 12-C , 13-H ) :   0.9238 B( 12-C , 14-H ) :   0.9089 
B( 12-C , 15-O ) :   0.8691 B( 12-C , 16-C ) :   0.8857 B( 16-C , 17-C ) :   0.8945 
B( 16-C , 20-O ) :   0.8592 B( 16-C , 21-H ) :   0.9234 B( 17-C , 18-C ) :   0.9087 
B( 17-C , 22-O ) :   0.8939 B( 17-C , 23-H ) :   0.9333 B( 18-C , 19-C ) :   0.9404 
B( 18-C , 24-H ) :   0.9365 B( 18-C , 25-H ) :   0.9347 B( 19-C , 20-O ) :   0.8502 
B( 19-C , 26-H ) :   0.9312 B( 19-C , 27-H ) :   0.9376 B( 22-O , 28-H ) :   0.7932 


-------
TIMINGS
-------

Total SCF time: 0 days 0 hours 1 min 15 sec 

Total time                  ....      75.152 sec
Sum of individual times     ....      74.026 sec  ( 98.5%)

Fock matrix formation       ....      67.071 sec  ( 89.2%)
  XC integration            ....      19.963 sec  ( 29.8% of F)
    Basis function eval.    ....       2.198 sec  ( 11.0% of XC)
    Density eval.           ....       1.043 sec  (  5.2% of XC)
    XC-Functional eval.     ....       0.483 sec  (  2.4% of XC)
    XC-Potential eval.      ....       1.405 sec  (  7.0% of XC)
Diagonalization             ....       0.010 sec  (  0.0%)
Density matrix formation    ....       0.004 sec  (  0.0%)
Population analysis         ....       0.658 sec  (  0.9%)
Initial guess               ....       0.025 sec  (  0.0%)
Orbital Transformation      ....       0.000 sec  (  0.0%)
Orbital Orthonormalization  ....       0.006 sec  (  0.0%)
DIIS solution               ....       0.002 sec  (  0.0%)
SOSCF solution              ....       0.114 sec  (  0.2%)
Grid generation             ....       6.143 sec  (  8.2%)

-------------------------   --------------------
FINAL SINGLE POINT ENERGY      -652.853489860546
-------------------------   --------------------

                                *** OPTIMIZATION RUN DONE ***

                            ***************************************
                            *     ORCA property calculations      *
                            ***************************************

                                    ---------------------
                                    Active property flags
                                    ---------------------
   (+) Dipole Moment


------------------------------------------------------------------------------
                       ORCA ELECTRIC PROPERTIES CALCULATION
------------------------------------------------------------------------------

Dipole Moment Calculation                       ... on
Quadrupole Moment Calculation                   ... off
Polarizability Calculation                      ... off
GBWName                                         ... project_8052/ensemble_135_105.gbw
Electron density file                           ... project_8052/ensemble_135_105.scfp
The origin for moment calculation is the CENTER OF MASS  = (-42.203389, 51.946667 85.309991)

-------------
DIPOLE MOMENT
-------------
                                X             Y             Z
Electronic contribution:     -4.12803      -5.82585      -0.49472
Nuclear contribution   :      5.11837       7.40223       0.19481
                        -----------------------------------------
Total Dipole Moment    :      0.99034       1.57639      -0.29991
                        -----------------------------------------
Magnitude (a.u.)       :      1.88566
Magnitude (Debye)      :      4.79297



--------------------
Rotational spectrum 
--------------------
 
Rotational constants in cm-1:     0.064132     0.012936     0.012487 
Rotational constants in MHz :  1922.626981   387.796805   374.337322 

 Dipole components along the rotational axes: 
x,y,z [a.u.] :     0.015413    -1.672641    -0.870492 
x,y,z [Debye]:     0.039177    -4.251515    -2.212614 

 

Timings for individual modules:

Sum of individual times         ...     1462.524 sec (=  24.375 min)
GTO integral calculation        ...        4.031 sec (=   0.067 min)   0.3 %
SCF iterations                  ...     1132.554 sec (=  18.876 min)  77.4 %
SCF Gradient evaluation         ...      322.434 sec (=   5.374 min)  22.0 %
Geometry relaxation             ...        3.505 sec (=   0.058 min)   0.2 %
                             ****ORCA TERMINATED NORMALLY****
TOTAL RUN TIME: 0 days 0 hours 24 minutes 35 seconds 864 msec
