
                                 *****************
                                 * O   R   C   A *
                                 *****************

           --- An Ab Initio, DFT and Semiempirical electronic structure package ---

                  #######################################################
                  #                        -***-                        #
                  #          Department of theory and spectroscopy      #
                  #               Directorship: Frank Neese             #
                  #        Max Planck Institute fuer Kohlenforschung    #
                  #                Kaiser Wilhelm Platz 1               #
                  #                 D-45470 Muelheim/Ruhr               #
                  #                      Germany                        #
                  #                                                     #
                  #                  All rights reserved                #
                  #                        -***-                        #
                  #######################################################


                         Program Version 4.2.0 -  RELEASE  -


 With contributions from (in alphabetic order):
   Daniel Aravena         : Magnetic Suceptibility
   Michael Atanasov       : Ab Initio Ligand Field Theory (pilot matlab implementation)
   Alexander A. Auer      : GIAO ZORA, VPT2
   Ute Becker             : Parallelization
   Giovanni Bistoni       : ED, misc. LED, open-shell LED, HFLED
   Martin Brehm           : Molecular dynamics
   Dmytro Bykov           : SCF Hessian
   Vijay G. Chilkuri      : MRCI spin determinant printing, contributions to CSF-ICE
   Dipayan Datta          : RHF DLPNO-CCSD density
   Achintya Kumar Dutta   : EOM-CC, STEOM-CC
   Dmitry Ganyushin       : Spin-Orbit,Spin-Spin,Magnetic field MRCI
   Miquel Garcia          : C-PCM Hessian, Gaussian charge scheme
   Yang Guo               : DLPNO-NEVPT2, CIM, IAO-localization
   Andreas Hansen         : Spin unrestricted coupled pair/coupled cluster methods
   Benjamin Helmich-Paris : CASSCF linear response (MC-RPA)
   Lee Huntington         : MR-EOM, pCC
   Robert Izsak           : Overlap fitted RIJCOSX, COSX-SCS-MP3, EOM
   Christian Kollmar      : KDIIS, OOCD, Brueckner-CCSD(T), CCSD density
   Simone Kossmann        : Meta GGA functionals, TD-DFT gradient, OOMP2, MP2 Hessian
   Martin Krupicka        : AUTO-CI
   Lucas Lang             : DCDCAS
   Dagmar Lenk            : GEPOL surface, SMD
   Dimitrios Liakos       : Extrapolation schemes; Compound Job, initial MDCI parallelization
   Dimitrios Manganas     : Further ROCIS development; embedding schemes
   Dimitrios Pantazis     : SARC Basis sets
   Taras Petrenko         : DFT Hessian,TD-DFT gradient, ASA, ECA, R-Raman, ABS, FL, XAS/XES, NRVS
   Peter Pinski           : DLPNO-MP2, DLPNO-MP2 Gradient
   Christoph Reimann      : Effective Core Potentials
   Marius Retegan         : Local ZFS, SOC
   Christoph Riplinger    : Optimizer, TS searches, QM/MM, DLPNO-CCSD(T), (RO)-DLPNO pert. Triples
   Tobias Risthaus        : Range-separated hybrids, TD-DFT gradient, RPA, STAB
   Michael Roemelt        : Original ROCIS implementation
   Masaaki Saitow         : Open-shell DLPNO-CCSD energy and density
   Barbara Sandhoefer     : DKH picture change effects
   Avijit Sen             : IP-ROCIS
   Kantharuban Sivalingam : CASSCF convergence, NEVPT2, FIC-MRCI
   Bernardo de Souza      : ESD, SOC TD-DFT
   Georgi Stoychev        : AutoAux, RI-MP2 NMR
   Willem Van den Heuvel  : Paramagnetic NMR
   Boris Wezisla          : Elementary symmetry handling
   Frank Wennmohs         : Technical directorship


 We gratefully acknowledge several colleagues who have allowed us to
 interface, adapt or use parts of their codes:
   Stefan Grimme, W. Hujo, H. Kruse,             : VdW corrections, initial TS optimization,
                  C. Bannwarth                     DFT functionals, gCP, sTDA/sTD-DF
   Ed Valeev, F. Pavosevic, A. Kumar             : LibInt (2-el integral package), F12 methods
   Garnet Chan, S. Sharma, J. Yang, R. Olivares  : DMRG
   Ulf Ekstrom                                   : XCFun DFT Library
   Mihaly Kallay                                 : mrcc  (arbitrary order and MRCC methods)
   Andreas Klamt, Michael Diedenhofen            : otool_cosmo (COSMO solvation model)
   Jiri Pittner, Ondrej Demel                    : Mk-CCSD
   Frank Weinhold                                : gennbo (NPA and NBO analysis)
   Christopher J. Cramer and Donald G. Truhlar   : smd solvation model
   Lars Goerigk                                  : TD-DFT with DH, B97 family of functionals
   V. Asgeirsson, H. Jonsson                     : NEB implementation
   FAccTs GmbH                                   : IRC, NEB, NEB-TS, Multilevel, MM, QM/MM, CI optimization
   S Lehtola, MJT Oliveira, MAL Marques          : LibXC Library


 Your calculation uses the libint2 library for the computation of 2-el integrals
 For citations please refer to: http://libint.valeyev.net

 Your ORCA version has been built with support for libXC version: 4.2.3
 For citations please refer to: https://tddft.org/programs/libxc/

 This ORCA versions uses:
   CBLAS   interface :  Fast vector & matrix operations
   LAPACKE interface :  Fast linear algebra routines
   SCALAPACK package :  Parallel linear algebra routines


----- Orbital basis set information -----
Your calculation utilizes the basis: 6-31G
   H-He, Li-Ne : W. J. Hehre, R. Ditchfield and J.A. Pople, J. Chem. Phys. 56, 2257 (1972).
                 Note: He and Ne are unpublished basis sets taken from the Gaussian program.
                 Note: Li and B from J. D. Dill and J. A. Pople, J. Chem. Phys. 62, 2921 (1975).
   Na - Ar     : M. M. Francl, W. J. Pietro, W. J. Hehre, J. S. Binkley, M. S. Gordon, 
                 D. J. DeFrees and J. A. Pople, J. Chem. Phys. 77, 3654 (1982).
   K - Zn      : V. A. Rassolov, J. A. Pople, M. A. Ratner, and T. L. Windus, J. Chem. Phys. 109, 1223 (1998).

================================================================================
                                        WARNINGS
                       Please study these warnings very carefully!
================================================================================


WARNING: Geometry Optimization
  ===> : Switching off AutoStart
         For restart on a previous wavefunction, please use MOREAD

INFO   : the flag for use of LIBINT has been found!

================================================================================
                                       INPUT FILE
================================================================================
NAME = project_8048/ensemble_0_255.inp
|  1> # Test redundant internal optimization
|  2> #
|  3> ! RKS B3LYP  Opt TightSCF SmallPrint
|  4> 
|  5> %basis
|  6>         Basis "6-31G"
|  7> end
|  8> 
|  9> %geom
| 10> Constraints
| 11> { D 4  0  15  12  0.0   C } # D for Dihedral angle
| 12> { D 0  15  12  16  255.0   C } # D for Dihedral angle
| 13> { D 0  4  3  2   C } # D for Dihedral angle
| 14> { D 4  3  2  1   C } # D for Dihedral angle
| 15> { D 3  2  1  0   C } # D for Dihedral angle
| 16> { D 2  1  0  4   C } # D for Dihedral angle
| 17> { D 1  0  4  3   C } # D for Dihedral angle
| 18> { D 16  20  19  18   C } # D for Dihedral angle
| 19> { D 20  19  18  17   C } # D for Dihedral angle
| 20> { D 19  18  17  16   C } # D for Dihedral angle
| 21> { D 18  17  16  20   C } # D for Dihedral angle
| 22> { D 17  16  20  19   C } # D for Dihedral angle
| 23> { D 15  12  16  20   C } # D for Dihedral angle
| 24> end
| 25> end
| 26> 
| 27> 
| 28> #%pal 
| 29> #nprocs 8
| 30> #end
| 31> 
| 32> * xyz 0 1
| 33> C  -21.048   26.222   46.251
| 34> C  -20.361   27.558   45.944
| 35> C  -20.329   28.222   47.341
| 36> C  -20.110   27.022   48.296
| 37> O  -20.473   25.807   47.535
| 38> H  -20.833   25.428   45.533
| 39> H  -19.344   27.382   45.576
| 40> H  -20.898   28.157   45.201
| 41> H  -19.543   28.978   47.434
| 42> H  -21.289   28.710   47.548
| 43> H  -20.733   27.082   49.195
| 44> H  -19.064   26.913   48.597
| 45> C  -23.172   26.101   47.783
| 46> H  -22.358   26.087   48.518
| 47> H  -23.883   26.884   48.074
| 48> O  -22.586   26.394   46.375
| 49> C  -23.915   24.738   47.853
| 50> C  -25.015   24.649   46.787
| 51> C  -24.195   24.311   45.519
| 52> C  -23.060   23.409   46.063
| 53> O  -23.003   23.639   47.523
| 54> H  -24.262   24.571   48.874
| 55> O  -25.994   23.493   47.129
| 56> H  -25.593   25.573   46.686
| 57> H  -24.791   23.813   44.748
| 58> H  -23.782   25.229   45.082
| 59> H  -22.086   23.648   45.623
| 60> H  -23.264   22.344   45.913
| 61> H  -25.437   22.556   47.235
| 62> *
| 63> 
| 64>                          ****END OF INPUT****
================================================================================

                       *****************************
                       * Geometry Optimization Run *
                       *****************************

Geometry optimization settings:
Update method            Update   .... BFGS
Choice of coordinates    CoordSys .... Z-matrix Internals
Initial Hessian          InHess   .... Almoef's Model

Convergence Tolerances:
Energy Change            TolE     ....  5.0000e-06 Eh
Max. Gradient            TolMAXG  ....  3.0000e-04 Eh/bohr
RMS Gradient             TolRMSG  ....  1.0000e-04 Eh/bohr
Max. Displacement        TolMAXD  ....  4.0000e-03 bohr
RMS Displacement         TolRMSD  ....  2.0000e-03 bohr
Strict Convergence                ....  False
------------------------------------------------------------------------------
                        ORCA OPTIMIZATION COORDINATE SETUP
------------------------------------------------------------------------------

The optimization will be done in new redundant internal coordinates
Making redundant internal coordinates   ...  (new redundants) done
Evaluating the initial hessian          ...  (Almloef) done
Evaluating the coordinates              ...  done
Calculating the B-matrix                .... done
Calculating the G-matrix                .... done
Diagonalizing the G-matrix              .... done
Imposing constraints:
 Iter   0:  RMS(Cart)=    0.0002603909 RMS(Int)=    0.0000742782
 Iter   1:  RMS(Cart)=    0.0001296678 RMS(Int)=    0.0000402802
 Iter   2:  RMS(Cart)=    0.0000674706 RMS(Int)=    0.0000240820
 Iter   3:  RMS(Cart)=    0.0000370382 RMS(Int)=    0.0000156595
 Iter   4:  RMS(Cart)=    0.0000215394 RMS(Int)=    0.0000108176
 Iter   5:  RMS(Cart)=    0.0000132281 RMS(Int)=    0.0000078295
 Iter   6:  RMS(Cart)=    0.0000085092 RMS(Int)=    0.0000059327
 Iter   7:  RMS(Cart)=    0.0000056819 RMS(Int)=    0.0000047331
 Iter   8:  RMS(Cart)=    0.0000039118 RMS(Int)=    0.0000039874
 Iter   9:  RMS(Cart)=    0.0000027679 RMS(Int)=    0.0000035284
 Iter  10:  RMS(Cart)=    0.0000020136 RMS(Int)=    0.0000032410
 Iter  11:  RMS(Cart)=    0.0000015108 RMS(Int)=    0.0000030514
 Iter  12:  RMS(Cart)=    0.0000011746 RMS(Int)=    0.0000029156
 Iter  13:  RMS(Cart)=    0.0000009498 RMS(Int)=    0.0000028094
 Iter  14:  RMS(Cart)=    0.0000007995 RMS(Int)=    0.0000027194
 Iter  15:  RMS(Cart)=    0.0000006982 RMS(Int)=    0.0000026389
 Iter  16:  RMS(Cart)=    0.0000006286 RMS(Int)=    0.0000025643
 Iter  17:  RMS(Cart)=    0.0000005792 RMS(Int)=    0.0000024937
 Iter  18:  RMS(Cart)=    0.0000005427 RMS(Int)=    0.0000024261
 Iter  19:  RMS(Cart)=    0.0000005145 RMS(Int)=    0.0000023610
 Iter  20:  RMS(Cart)=    0.0000004916 RMS(Int)=    0.0000022982
 Iter  21:  RMS(Cart)=    0.0000004723 RMS(Int)=    0.0000022373
 Iter  22:  RMS(Cart)=    0.0000004555 RMS(Int)=    0.0000021784
 Iter  23:  RMS(Cart)=    0.0000004404 RMS(Int)=    0.0000021212
 Iter  24:  RMS(Cart)=    0.0000004265 RMS(Int)=    0.0000020658
 Iter  25:  RMS(Cart)=    0.0000004136 RMS(Int)=    0.0000020120
 Iter  26:  RMS(Cart)=    0.0000004015 RMS(Int)=    0.0000019599
 Iter  27:  RMS(Cart)=    0.0000003900 RMS(Int)=    0.0000019093
 Iter  28:  RMS(Cart)=    0.0000003790 RMS(Int)=    0.0000018602
 Iter  29:  RMS(Cart)=    0.0000003684 RMS(Int)=    0.0000018125
 Iter  30:  RMS(Cart)=    0.0000003583 RMS(Int)=    0.0000017663
 Iter  31:  RMS(Cart)=    0.0000003485 RMS(Int)=    0.0000017214
 Iter  32:  RMS(Cart)=    0.0000003390 RMS(Int)=    0.0000016779
 Iter  33:  RMS(Cart)=    0.0000003299 RMS(Int)=    0.0000016356
 Iter  34:  RMS(Cart)=    0.0000003210 RMS(Int)=    0.0000015945
 Iter  35:  RMS(Cart)=    0.0000003124 RMS(Int)=    0.0000015546
 Iter  36:  RMS(Cart)=    0.0000003041 RMS(Int)=    0.0000015159
 Iter  37:  RMS(Cart)=    0.0000002960 RMS(Int)=    0.0000014783
 Iter  38:  RMS(Cart)=    0.0000002882 RMS(Int)=    0.0000014418
 Iter  39:  RMS(Cart)=    0.0000002806 RMS(Int)=    0.0000014063
 Iter  40:  RMS(Cart)=    0.0000002732 RMS(Int)=    0.0000013718
 Iter  41:  RMS(Cart)=    0.0000002661 RMS(Int)=    0.0000013384
 Iter  42:  RMS(Cart)=    0.0000002591 RMS(Int)=    0.0000013058
 Iter  43:  RMS(Cart)=    0.0000002524 RMS(Int)=    0.0000012742
 Iter  44:  RMS(Cart)=    0.0000002458 RMS(Int)=    0.0000012435
 Iter  45:  RMS(Cart)=    0.0000002394 RMS(Int)=    0.0000012136
 Iter  46:  RMS(Cart)=    0.0000002332 RMS(Int)=    0.0000011846
 Iter  47:  RMS(Cart)=    0.0000002272 RMS(Int)=    0.0000011564
 Iter  48:  RMS(Cart)=    0.0000002214 RMS(Int)=    0.0000011290
 Iter  49:  RMS(Cart)=    0.0000002157 RMS(Int)=    0.0000011023
 Iter  50:  RMS(Cart)=    0.0000002102 RMS(Int)=    0.0000010764
 Iter  51:  RMS(Cart)=    0.0000002049 RMS(Int)=    0.0000010512
 Iter  52:  RMS(Cart)=    0.0000001997 RMS(Int)=    0.0000010267
 Iter  53:  RMS(Cart)=    0.0000001946 RMS(Int)=    0.0000010029
 Iter  54:  RMS(Cart)=    0.0000001897 RMS(Int)=    0.0000009797
 Iter  55:  RMS(Cart)=    0.0000001849 RMS(Int)=    0.0000009571
 Iter  56:  RMS(Cart)=    0.0000001803 RMS(Int)=    0.0000009352
 Iter  57:  RMS(Cart)=    0.0000001758 RMS(Int)=    0.0000009138
 Iter  58:  RMS(Cart)=    0.0000001714 RMS(Int)=    0.0000008931
 Iter  59:  RMS(Cart)=    0.0000001671 RMS(Int)=    0.0000008729
 Iter  60:  RMS(Cart)=    0.0000001630 RMS(Int)=    0.0000008532
 Iter  61:  RMS(Cart)=    0.0000001589 RMS(Int)=    0.0000008340
 Iter  62:  RMS(Cart)=    0.0000001550 RMS(Int)=    0.0000008154
 Iter  63:  RMS(Cart)=    0.0000001512 RMS(Int)=    0.0000007973
 Iter  64:  RMS(Cart)=    0.0000001475 RMS(Int)=    0.0000007796
 Iter  65:  RMS(Cart)=    0.0000001439 RMS(Int)=    0.0000007624
 Iter  66:  RMS(Cart)=    0.0000001403 RMS(Int)=    0.0000007457
 Iter  67:  RMS(Cart)=    0.0000001369 RMS(Int)=    0.0000007294
 Iter  68:  RMS(Cart)=    0.0000001336 RMS(Int)=    0.0000007135
 Iter  69:  RMS(Cart)=    0.0000001304 RMS(Int)=    0.0000006981
 Iter  70:  RMS(Cart)=    0.0000001272 RMS(Int)=    0.0000006830
 Iter  71:  RMS(Cart)=    0.0000001242 RMS(Int)=    0.0000006684
 Iter  72:  RMS(Cart)=    0.0000001212 RMS(Int)=    0.0000006541
 Iter  73:  RMS(Cart)=    0.0000001183 RMS(Int)=    0.0000006402
 Iter  74:  RMS(Cart)=    0.0000001154 RMS(Int)=    0.0000006266
 Iter  75:  RMS(Cart)=    0.0000001127 RMS(Int)=    0.0000006134
 Iter  76:  RMS(Cart)=    0.0000001100 RMS(Int)=    0.0000006005
 Iter  77:  RMS(Cart)=    0.0000001074 RMS(Int)=    0.0000005880
 Iter  78:  RMS(Cart)=    0.0000001049 RMS(Int)=    0.0000005757
 Iter  79:  RMS(Cart)=    0.0000001024 RMS(Int)=    0.0000005638
 Iter  80:  RMS(Cart)=    0.0000001000 RMS(Int)=    0.0000005522
 Iter  81:  RMS(Cart)=    0.0000000977 RMS(Int)=    0.0000005409
 Iter  82:  RMS(Cart)=    0.0000000954 RMS(Int)=    0.0000005298
 Iter  83:  RMS(Cart)=    0.0000000931 RMS(Int)=    0.0000005191
 Iter  84:  RMS(Cart)=    0.0000000910 RMS(Int)=    0.0000005086
 Iter  85:  RMS(Cart)=    0.0000000889 RMS(Int)=    0.0000004983
 Iter  86:  RMS(Cart)=    0.0000000868 RMS(Int)=    0.0000004883
 Iter  87:  RMS(Cart)=    0.0000000848 RMS(Int)=    0.0000004786
 Iter  88:  RMS(Cart)=    0.0000000829 RMS(Int)=    0.0000004691
 Iter  89:  RMS(Cart)=    0.0000000810 RMS(Int)=    0.0000004598
 Iter  90:  RMS(Cart)=    0.0000000791 RMS(Int)=    0.0000004508
 Iter  91:  RMS(Cart)=    0.0000000773 RMS(Int)=    0.0000004420
 Iter  92:  RMS(Cart)=    0.0000000756 RMS(Int)=    0.0000004333
 Iter  93:  RMS(Cart)=    0.0000000738 RMS(Int)=    0.0000004249
 Iter  94:  RMS(Cart)=    0.0000000722 RMS(Int)=    0.0000004167
 Iter  95:  RMS(Cart)=    0.0000000705 RMS(Int)=    0.0000004087
 Iter  96:  RMS(Cart)=    0.0000000690 RMS(Int)=    0.0000004009
 Iter  97:  RMS(Cart)=    0.0000000674 RMS(Int)=    0.0000003933
 Iter  98:  RMS(Cart)=    0.0000000659 RMS(Int)=    0.0000003858
 Iter  99:  RMS(Cart)=    0.0000000644 RMS(Int)=    0.0000003786
 RMS(Cart) too big - taking linear step, building new B-matrix and trying again
Imposing constraints:
 Iter   0:  RMS(Cart)=    0.0001296600 RMS(Int)=    0.0000402796
 Iter   1:  RMS(Cart)=    0.0000674662 RMS(Int)=    0.0000240811
 Iter   2:  RMS(Cart)=    0.0000370354 RMS(Int)=    0.0000156585
 Iter   3:  RMS(Cart)=    0.0000215375 RMS(Int)=    0.0000108167
 Iter   4:  RMS(Cart)=    0.0000132268 RMS(Int)=    0.0000078288
 Iter   5:  RMS(Cart)=    0.0000085083 RMS(Int)=    0.0000059321
 Iter   6:  RMS(Cart)=    0.0000056813 RMS(Int)=    0.0000047326
 Iter   7:  RMS(Cart)=    0.0000039114 RMS(Int)=    0.0000039870
 Iter   8:  RMS(Cart)=    0.0000027677 RMS(Int)=    0.0000035279
 Iter   9:  RMS(Cart)=    0.0000020134 RMS(Int)=    0.0000032406
 Iter  10:  RMS(Cart)=    0.0000015107 RMS(Int)=    0.0000030509
 Iter  11:  RMS(Cart)=    0.0000011745 RMS(Int)=    0.0000029152
 Iter  12:  RMS(Cart)=    0.0000009498 RMS(Int)=    0.0000028090
 Iter  13:  RMS(Cart)=    0.0000007995 RMS(Int)=    0.0000027190
 Iter  14:  RMS(Cart)=    0.0000006982 RMS(Int)=    0.0000026385
 Iter  15:  RMS(Cart)=    0.0000006286 RMS(Int)=    0.0000025639
 Iter  16:  RMS(Cart)=    0.0000005792 RMS(Int)=    0.0000024933
 Iter  17:  RMS(Cart)=    0.0000005427 RMS(Int)=    0.0000024257
 Iter  18:  RMS(Cart)=    0.0000005145 RMS(Int)=    0.0000023606
 Iter  19:  RMS(Cart)=    0.0000004916 RMS(Int)=    0.0000022978
 Iter  20:  RMS(Cart)=    0.0000004723 RMS(Int)=    0.0000022369
 Iter  21:  RMS(Cart)=    0.0000004555 RMS(Int)=    0.0000021779
 Iter  22:  RMS(Cart)=    0.0000004403 RMS(Int)=    0.0000021208
 Iter  23:  RMS(Cart)=    0.0000004265 RMS(Int)=    0.0000020654
 Iter  24:  RMS(Cart)=    0.0000004136 RMS(Int)=    0.0000020116
 Iter  25:  RMS(Cart)=    0.0000004015 RMS(Int)=    0.0000019595
 Iter  26:  RMS(Cart)=    0.0000003900 RMS(Int)=    0.0000019089
 Iter  27:  RMS(Cart)=    0.0000003790 RMS(Int)=    0.0000018598
 Iter  28:  RMS(Cart)=    0.0000003684 RMS(Int)=    0.0000018122
 Iter  29:  RMS(Cart)=    0.0000003583 RMS(Int)=    0.0000017659
 Iter  30:  RMS(Cart)=    0.0000003485 RMS(Int)=    0.0000017210
 Iter  31:  RMS(Cart)=    0.0000003390 RMS(Int)=    0.0000016775
 Iter  32:  RMS(Cart)=    0.0000003299 RMS(Int)=    0.0000016352
 Iter  33:  RMS(Cart)=    0.0000003210 RMS(Int)=    0.0000015941
 Iter  34:  RMS(Cart)=    0.0000003124 RMS(Int)=    0.0000015543
 Iter  35:  RMS(Cart)=    0.0000003041 RMS(Int)=    0.0000015155
 Iter  36:  RMS(Cart)=    0.0000002960 RMS(Int)=    0.0000014779
 Iter  37:  RMS(Cart)=    0.0000002882 RMS(Int)=    0.0000014414
 Iter  38:  RMS(Cart)=    0.0000002806 RMS(Int)=    0.0000014060
 Iter  39:  RMS(Cart)=    0.0000002732 RMS(Int)=    0.0000013715
 Iter  40:  RMS(Cart)=    0.0000002660 RMS(Int)=    0.0000013380
 Iter  41:  RMS(Cart)=    0.0000002591 RMS(Int)=    0.0000013055
 Iter  42:  RMS(Cart)=    0.0000002523 RMS(Int)=    0.0000012739
 Iter  43:  RMS(Cart)=    0.0000002458 RMS(Int)=    0.0000012432
 Iter  44:  RMS(Cart)=    0.0000002394 RMS(Int)=    0.0000012133
 Iter  45:  RMS(Cart)=    0.0000002332 RMS(Int)=    0.0000011843
 Iter  46:  RMS(Cart)=    0.0000002272 RMS(Int)=    0.0000011561
 Iter  47:  RMS(Cart)=    0.0000002214 RMS(Int)=    0.0000011287
 Iter  48:  RMS(Cart)=    0.0000002157 RMS(Int)=    0.0000011020
 Iter  49:  RMS(Cart)=    0.0000002102 RMS(Int)=    0.0000010761
 Iter  50:  RMS(Cart)=    0.0000002048 RMS(Int)=    0.0000010509
 Iter  51:  RMS(Cart)=    0.0000001996 RMS(Int)=    0.0000010264
 Iter  52:  RMS(Cart)=    0.0000001946 RMS(Int)=    0.0000010026
 Iter  53:  RMS(Cart)=    0.0000001897 RMS(Int)=    0.0000009794
CONVERGED
Small eigenvalue found = 8.398e-03
Small eigenvalue found = 1.113e-02
Small eigenvalue found = 1.510e-02
Small eigenvalue found = 2.523e-02
The first mode is                       ....   91
The number of degrees of freedom        ....   81
Storing new coordinates                 .... done

    -----------------------------------------------------------------
                    Redundant Internal Coordinates


    -----------------------------------------------------------------
         Definition                    Initial Value    Approx d2E/dq
    -----------------------------------------------------------------
      1. B(C   1,C   0)                  1.5333         0.369027   
      2. B(C   2,C   1)                  1.5471         0.350825   
      3. B(C   3,C   2)                  1.5492         0.348147   
      4. B(O   4,C   0)                  1.4668         0.422031   
      5. B(O   4,C   3)                  1.4789         0.403699   
      6. B(H   5,C   0)                  1.0919         0.357632   
      7. B(H   6,C   1)                  1.0958         0.352561   
      8. B(H   7,C   1)                  1.0951         0.353431   
      9. B(H   8,C   2)                  1.0945         0.354166   
     10. B(H   9,C   2)                  1.0966         0.351438   
     11. B(H  10,C   3)                  1.0954         0.353010   
     12. B(H  11,C   3)                  1.0939         0.354989   
     13. B(H  13,C  12)                  1.0968         0.351188   
     14. B(H  14,C  12)                  1.0969         0.351027   
     15. B(O  15,C   0)                  1.5525         0.307993   
     16. B(O  15,C  12)                  1.5530         0.307518   
     17. B(C  16,C  12)                  1.5539         0.342128   
     18. B(C  17,C  16)                  1.5344         0.367632   
     19. B(C  18,C  17)                  1.5474         0.350434   
     20. B(C  19,C  18)                  1.5485         0.349065   
     21. B(O  20,C  16)                  1.4658         0.423652   
     22. B(O  20,C  19)                  1.4791         0.403381   
     23. B(H  21,C  16)                  1.0912         0.358503   
     24. B(O  22,C  17)                  1.5530         0.307506   
     25. B(H  23,C  17)                  1.0946         0.354118   
     26. B(H  24,C  18)                  1.0944         0.354356   
     27. B(H  25,C  18)                  1.0974         0.350457   
     28. B(H  26,C  19)                  1.0952         0.353325   
     29. B(H  27,C  19)                  1.0947         0.353952   
     30. B(H  28,O  22)                  1.0952         0.316425   
     31. A(O   4,C   0,H   5)          107.0213         0.328541   
     32. A(C   1,C   0,O  15)          111.3021         0.348740   
     33. A(C   1,C   0,O   4)          104.2487         0.367935   
     34. A(O   4,C   0,O  15)          110.4734         0.354548   
     35. A(C   1,C   0,H   5)          114.4377         0.323302   
     36. A(H   5,C   0,O  15)          109.1576         0.312058   
     37. A(C   0,C   1,C   2)          101.6796         0.358729   
     38. A(C   2,C   1,H   7)          112.8319         0.320016   
     39. A(C   2,C   1,H   6)          110.6708         0.319888   
     40. A(C   0,C   1,H   6)          110.0677         0.322546   
     41. A(H   6,C   1,H   7)          108.3681         0.289027   
     42. A(C   0,C   1,H   7)          113.1243         0.322677   
     43. A(C   1,C   2,H   8)          112.8318         0.320125   
     44. A(C   1,C   2,C   3)          103.1267         0.355196   
     45. A(C   1,C   2,H   9)          110.0800         0.319721   
     46. A(C   3,C   2,H   9)          110.6152         0.319321   
     47. A(C   3,C   2,H   8)          112.4038         0.319725   
     48. A(H   8,C   2,H   9)          107.7728         0.288977   
     49. A(O   4,C   3,H  10)          109.1298         0.325449   
     50. A(C   2,C   3,H  10)          112.5253         0.319554   
     51. A(C   2,C   3,O   4)          106.5276         0.361529   
     52. A(O   4,C   3,H  11)          107.1237         0.325748   
     53. A(H  10,C   3,H  11)          108.8728         0.289284   
     54. A(C   2,C   3,H  11)          112.4566         0.319846   
     55. A(C   0,O   4,C   3)          108.3146         0.371320   
     56. A(H  14,C  12,C  16)          107.6993         0.318353   
     57. A(H  13,C  12,H  14)          108.2022         0.288542   
     58. A(H  13,C  12,O  15)          109.2617         0.311064   
     59. A(H  14,C  12,O  15)          110.5162         0.311041   
     60. A(O  15,C  12,C  16)          112.7524         0.344240   
     61. A(H  13,C  12,C  16)          108.2810         0.318377   
     62. A(C   0,O  15,C  12)          115.1707         0.336188   
     63. A(C  12,C  16,C  17)          111.2443         0.356971   
     64. A(C  12,C  16,O  20)          110.4884         0.363436   
     65. A(C  17,C  16,O  20)          104.2494         0.367938   
     66. A(C  12,C  16,H  21)          109.1747         0.319450   
     67. A(C  17,C  16,H  21)          114.4052         0.323230   
     68. A(O  20,C  16,H  21)          107.0848         0.328881   
     69. A(C  16,C  17,C  18)          101.6585         0.358430   
     70. A(C  16,C  17,O  22)          110.0058         0.348425   
     71. A(C  18,C  17,O  22)          110.6053         0.345627   
     72. A(C  16,C  17,H  23)          113.1858         0.322579   
     73. A(C  18,C  17,H  23)          112.8677         0.320060   
     74. A(O  22,C  17,H  23)          108.4099         0.311480   
     75. A(C  17,C  18,C  19)          103.1657         0.355288   
     76. A(C  17,C  18,H  24)          112.8367         0.320095   
     77. A(C  19,C  18,H  24)          112.4339         0.319890   
     78. A(C  17,C  18,H  25)          110.0614         0.319517   
     79. A(C  19,C  18,H  25)          110.5689         0.319313   
     80. A(H  24,C  18,H  25)          107.7627         0.288874   
     81. A(C  18,C  19,O  20)          106.5258         0.361643   
     82. A(C  18,C  19,H  26)          112.5579         0.319738   
     83. A(O  20,C  19,H  26)          109.1696         0.325454   
     84. A(C  18,C  19,H  27)          112.4562         0.319831   
     85. A(O  20,C  19,H  27)          107.0807         0.325549   
     86. A(H  26,C  19,H  27)          108.8443         0.289192   
     87. A(C  16,O  20,C  19)          108.3521         0.371515   
     88. A(C  17,O  22,H  28)          109.7281         0.303357   
     89. D(H   7,C   1,C   0,H   5)     82.1518         0.010890   
     90. D(C   2,C   1,C   0,O  15)     79.0869         0.010890   
     91. D(H   7,C   1,C   0,O  15)    -42.1868         0.010890   
     92. D(H   6,C   1,C   0,O   4)     77.3259         0.010890   
     93. D(H   6,C   1,C   0,O  15)   -163.5727         0.010890   
     94. D(H   6,C   1,C   0,H   5)    -39.2341         0.010890   
     95. D(H   7,C   1,C   0,O   4)   -161.2882         0.010890   
     96. D(C   2,C   1,C   0,O   4)    -40.0145         0.010890 C 
     97. D(C   2,C   1,C   0,H   5)   -156.5745         0.010890   
     98. D(H   9,C   2,C   1,H   6)    160.0776         0.009912   
     99. D(H   8,C   2,C   1,C   0)    156.5478         0.009912   
    100. D(H   8,C   2,C   1,H   6)     39.6446         0.009912   
    101. D(C   3,C   2,C   1,C   0)     35.0270         0.009912 C 
    102. D(H   8,C   2,C   1,H   7)    -81.9752         0.009912   
    103. D(H   9,C   2,C   1,C   0)    -83.0192         0.009912   
    104. D(C   3,C   2,C   1,H   6)    -81.8763         0.009912   
    105. D(H   9,C   2,C   1,H   7)     38.4578         0.009912   
    106. D(C   3,C   2,C   1,H   7)    156.5039         0.009912   
    107. D(H  11,C   3,C   2,H   9)   -143.4628         0.009774   
    108. D(O   4,C   3,C   2,H   8)   -140.0066         0.009774   
    109. D(O   4,C   3,C   2,H   9)     99.4739         0.009774   
    110. D(H  10,C   3,C   2,C   1)   -137.7432         0.009774   
    111. D(H  10,C   3,C   2,H   8)    100.4468         0.009774   
    112. D(H  10,C   3,C   2,H   9)    -20.0727         0.009774   
    113. D(H  11,C   3,C   2,C   1)     98.8667         0.009774   
    114. D(O   4,C   3,C   2,C   1)    -18.1967         0.009774 C 
    115. D(H  11,C   3,C   2,H   8)    -22.9433         0.009774   
    116. D(C   3,O   4,C   0,C   1)     29.5918         0.014035 C 
    117. D(C   3,O   4,C   0,H   5)    151.2016         0.014035   
    118. D(C   3,O   4,C   0,O  15)    -90.0712         0.014035   
    119. D(C   0,O   4,C   3,C   2)     -6.8732         0.012866 C 
    120. D(C   0,O   4,C   3,H  10)    114.8547         0.012866   
    121. D(C   0,O   4,C   3,H  11)   -127.4272         0.012866   
    122. D(C   0,O  15,C  12,C  16)   -105.0000         0.007772 C 
    123. D(C  12,O  15,C   0,O   4)      0.0000         0.007793 C 
    124. D(C  12,O  15,C   0,H   5)    117.4188         0.007793   
    125. D(C   0,O  15,C  12,H  14)    134.4068         0.007772   
    126. D(C   0,O  15,C  12,H  13)     15.4554         0.007772   
    127. D(C  12,O  15,C   0,C   1)   -115.3136         0.007793   
    128. D(C  17,C  16,C  12,H  13)   -176.3730         0.009467   
    129. D(H  21,C  16,C  12,H  14)    -60.3604         0.009467   
    130. D(C  17,C  16,C  12,O  15)    -55.3571         0.009467   
    131. D(O  20,C  16,C  12,H  13)    -61.0839         0.009467   
    132. D(O  20,C  16,C  12,H  14)   -177.8754         0.009467   
    133. D(O  20,C  16,C  12,O  15)     59.9320         0.009467 C 
    134. D(C  17,C  16,C  12,H  14)     66.8355         0.009467   
    135. D(H  21,C  16,C  12,H  13)     56.4312         0.009467   
    136. D(H  21,C  16,C  12,O  15)    177.4471         0.009467   
    137. D(C  18,C  17,C  16,C  12)     79.1433         0.010813   
    138. D(C  18,C  17,C  16,O  20)    -39.9470         0.010813 C 
    139. D(C  18,C  17,C  16,H  21)   -156.5677         0.010813   
    140. D(O  22,C  17,C  16,C  12)   -163.6282         0.010813   
    141. D(O  22,C  17,C  16,O  20)     77.2815         0.010813   
    142. D(O  22,C  17,C  16,H  21)    -39.3391         0.010813   
    143. D(H  23,C  17,C  16,C  12)    -42.1910         0.010813   
    144. D(H  23,C  17,C  16,O  20)   -161.2812         0.010813   
    145. D(H  23,C  17,C  16,H  21)     82.0981         0.010813   
    146. D(H  24,C  18,C  17,H  23)    -81.9259         0.009892   
    147. D(C  19,C  18,C  17,O  22)    -81.8593         0.009892   
    148. D(C  19,C  18,C  17,H  23)    156.4894         0.009892   
    149. D(H  24,C  18,C  17,C  16)    156.5188         0.009892   
    150. D(C  19,C  18,C  17,C  16)     34.9341         0.009892 C 
    151. D(H  24,C  18,C  17,O  22)     39.7254         0.009892   
    152. D(H  25,C  18,C  17,C  16)    -83.0708         0.009892   
    153. D(H  25,C  18,C  17,O  22)    160.1358         0.009892   
    154. D(H  25,C  18,C  17,H  23)     38.4845         0.009892   
    155. D(H  27,C  19,C  18,H  25)   -143.4633         0.009821   
    156. D(O  20,C  19,C  18,H  24)   -139.9786         0.009821   
    157. D(O  20,C  19,C  18,H  25)     99.5268         0.009821   
    158. D(H  26,C  19,C  18,C  17)   -137.7352         0.009821   
    159. D(H  26,C  19,C  18,H  24)    100.4083         0.009821   
    160. D(H  26,C  19,C  18,H  25)    -20.0863         0.009821   
    161. D(H  27,C  19,C  18,C  17)     98.8878         0.009821   
    162. D(O  20,C  19,C  18,C  17)    -18.1222         0.009821 C 
    163. D(H  27,C  19,C  18,H  24)    -22.9687         0.009821   
    164. D(C  19,O  20,C  16,C  12)    -90.0083         0.014142   
    165. D(C  19,O  20,C  16,C  17)     29.5945         0.014142 C 
    166. D(C  19,O  20,C  16,H  21)    151.1979         0.014142   
    167. D(C  16,O  20,C  19,C  18)     -6.9347         0.012846 C 
    168. D(C  16,O  20,C  19,H  26)    114.8536         0.012846   
    169. D(C  16,O  20,C  19,H  27)   -127.4648         0.012846   
    170. D(H  28,O  22,C  17,C  16)    -55.7576         0.007772   
    171. D(H  28,O  22,C  17,C  18)     55.7510         0.007772   
    172. D(H  28,O  22,C  17,H  23)    179.9939         0.007772   
    -----------------------------------------------------------------

Number of atoms                         .... 29
Number of degrees of freedom            .... 172

Time needed for optimization step       :     6.32 sec

         *************************************************************
         *                GEOMETRY OPTIMIZATION CYCLE   1            *
         *************************************************************
---------------------------------
CARTESIAN COORDINATES (ANGSTROEM)
---------------------------------
  C    -21.047602   26.221885   46.251213
  C    -20.360936   27.558014   45.943999
  C    -20.329162   28.222287   47.340879
  C    -20.109884   27.022515   48.296099
  O    -20.472537   25.807286   47.535310
  H    -20.832366   25.427828   45.533346
  H    -19.343878   27.382211   45.576066
  H    -20.898067   28.156741   45.200873
  H    -19.543363   28.978510   47.433770
  H    -21.289296   28.710075   47.547755
  H    -20.732932   27.082512   49.195066
  H    -19.063866   26.913842   48.597155
  C    -23.171645   26.100535   47.783126
  H    -22.357604   26.086512   48.518081
  H    -23.882633   26.883521   48.074194
  O    -22.585647   26.393545   46.375127
  C    -23.914976   24.737710   47.853011
  C    -25.015024   24.649114   46.787018
  C    -24.195142   24.311063   45.518950
  C    -23.060362   23.408712   46.062821
  O    -23.003270   23.638520   47.522842
  H    -24.262011   24.570682   48.873994
  O    -25.994308   23.493321   47.128905
  H    -25.592790   25.573273   46.686140
  H    -24.791287   23.813308   44.747904
  H    -23.781921   25.229011   45.082050
  H    -22.086310   23.647516   45.622829
  H    -23.264636   22.343782   45.912698
  H    -25.437543   22.556168   47.234780

----------------------------
CARTESIAN COORDINATES (A.U.)
----------------------------
  NO LB      ZA    FRAG     MASS         X           Y           Z
   0 C     6.0000    0    12.011  -39.774204   49.552181   87.402126
   1 C     6.0000    0    12.011  -38.476593   52.077100   86.821575
   2 C     6.0000    0    12.011  -38.416549   53.332394   89.461296
   3 C     6.0000    0    12.011  -38.002173   51.065152   91.266400
   4 O     8.0000    0    15.999  -38.687488   48.768703   89.828717
   5 H     1.0000    0     1.008  -39.367467   48.051632   86.045555
   6 H     1.0000    0     1.008  -36.554632   51.744879   86.126282
   7 H     1.0000    0     1.008  -39.491623   53.208528   85.417270
   8 H     1.0000    0     1.008  -36.931605   54.761448   89.636834
   9 H     1.0000    0     1.008  -40.230940   54.254180   89.852235
  10 H     1.0000    0     1.008  -39.179563   51.178531   92.965201
  11 H     1.0000    0     1.008  -36.025486   50.859790   91.835314
  12 C     6.0000    0    12.011  -43.788063   49.322863   90.297022
  13 H     1.0000    0     1.008  -42.249749   49.296364   91.685886
  14 H     1.0000    0     1.008  -45.131636   50.802491   90.847060
  15 O     8.0000    0    15.999  -42.680688   49.876572   87.636290
  16 C     6.0000    0    12.011  -45.192755   46.747497   90.429085
  17 C     6.0000    0    12.011  -47.271544   46.580075   88.414650
  18 C     6.0000    0    12.011  -45.722193   45.941252   86.018350
  19 C     6.0000    0    12.011  -43.577768   44.236055   87.046116
  20 O     8.0000    0    15.999  -43.469881   44.670329   89.805156
  21 H     1.0000    0     1.008  -45.848556   46.431861   92.358464
  22 O     8.0000    0    15.999  -49.122123   44.395943   89.060724
  23 H     1.0000    0     1.008  -48.363365   48.326483   88.224020
  24 H     1.0000    0     1.008  -46.848742   45.000630   84.561283
  25 H     1.0000    0     1.008  -44.941318   47.675922   85.192729
  26 H     1.0000    0     1.008  -41.737077   44.687330   86.214652
  27 H     1.0000    0     1.008  -43.963791   42.223628   86.762425
  28 H     1.0000    0     1.008  -48.069989   42.624980   89.260798

--------------------------------
INTERNAL COORDINATES (ANGSTROEM)
--------------------------------
 C      0   0   0     0.000000000000     0.00000000     0.00000000
 C      1   0   0     1.533334275362     0.00000000     0.00000000
 C      2   1   0     1.547103422529   101.67907390     0.00000000
 C      3   2   1     1.549188819996   103.12737509    35.02687180
 O      1   2   3     1.466801281701   104.24948604   319.98542309
 H      1   2   3     1.091872245274   114.43876658   203.42640133
 H      2   1   3     1.095759553917   110.06782188   117.34000099
 H      2   1   3     1.095088580892   113.12442239   238.72597460
 H      3   2   1     1.094523183857   112.83161078   156.54780790
 H      3   2   1     1.096628013503   110.07982737   276.98070077
 H      4   3   2     1.095413164062   112.52534669   222.25678475
 H      4   3   2     1.093891219455   112.45670684    98.86663270
 C      1   2   3     2.621648527168   121.34625191    44.51218039
 H     13   1   2     1.096821316350    77.93121751   275.39022437
 H     13   1   2     1.096946215637   130.33109763    19.12940025
 O      1   2   3     1.552547583812   111.30349807    79.08752829
 C     13   1   2     1.553936292130   117.01254233   170.86521272
 C     17  13   1     1.534365341110   111.24545740   269.10762327
 C     18  17  13     1.547406863110   101.65797731    79.14396119
 C     19  18  17     1.548471827319   103.16632549    34.93400631
 O     17  13   1     1.465757483351   110.48807207    24.39826446
 H     17  13   1     1.091209878988   109.17361409   141.91087510
 O     18  17  13     1.552978106736   110.00599199   196.37211002
 H     18  17  13     1.094559728841   113.18598835   317.80944346
 H     19  18  17     1.094376991717   112.83652659   156.51874947
 H     19  18  17     1.097388718732   110.06124155   276.92902030
 H     20  19  18     1.095169849841   112.55787499   222.26478076
 H     20  19  18     1.094687626677   112.45632376    98.88774598
 H     23  18  17     1.095195872892   109.72806434   304.24265692

---------------------------
INTERNAL COORDINATES (A.U.)
---------------------------
 C      0   0   0     0.000000000000     0.00000000     0.00000000
 C      1   0   0     2.897581852189     0.00000000     0.00000000
 C      2   1   0     2.923601769431   101.67907390     0.00000000
 C      3   2   1     2.927542599525   103.12737509    35.02687180
 O      1   2   3     2.771852715300   104.24948604   319.98542309
 H      1   2   3     2.063339516798   114.43876658   203.42640133
 H      2   1   3     2.070685465531   110.06782188   117.34000099
 H      2   1   3     2.069417510270   113.12442239   238.72597460
 H      3   2   1     2.068349064717   112.83161078   156.54780790
 H      3   2   1     2.072326616307   110.07982737   276.98070077
 H      4   3   2     2.070030883569   112.52534669   222.25678475
 H      4   3   2     2.067154825070   112.45670684    98.86663270
 C      1   2   3     4.954197735745   121.34625191    44.51218039
 H     13   1   2     2.072691905749    77.93121751   275.39022437
 H     13   1   2     2.072927931195   130.33109763    19.12940025
 O      1   2   3     2.933889743286   111.30349807    79.08752829
 C     13   1   2     2.936514021688   117.01254233   170.86521272
 C     17  13   1     2.899530284079   111.24545740   269.10762327
 C     18  17  13     2.924175189028   101.65797731    79.14396119
 C     19  18  17     2.926187679725   103.16632549    34.93400631
 O     17  13   1     2.769880222279   110.48807207    24.39826446
 H     17  13   1     2.062087825916   109.17361409   141.91087510
 O     18  17  13     2.934703313706   110.00599199   196.37211002
 H     18  17  13     2.068418124728   113.18598835   317.80944346
 H     19  18  17     2.068072801610   112.83652659   156.51874947
 H     19  18  17     2.073764140858   110.06124155   276.92902030
 H     20  19  18     2.069571086327   112.55787499   222.26478076
 H     20  19  18     2.068659816612   112.45632376    98.88774598
 H     23  18  17     2.069620262767   109.72806434   304.24265692

---------------------
BASIS SET INFORMATION
---------------------
There are 3 groups of distinct atoms

 Group   1 Type C   : 10s4p contracted to 3s2p pattern {631/31}
 Group   2 Type O   : 10s4p contracted to 3s2p pattern {631/31}
 Group   3 Type H   : 4s contracted to 2s pattern {31}

Atom   0C    basis set group =>   1
Atom   1C    basis set group =>   1
Atom   2C    basis set group =>   1
Atom   3C    basis set group =>   1
Atom   4O    basis set group =>   2
Atom   5H    basis set group =>   3
Atom   6H    basis set group =>   3
Atom   7H    basis set group =>   3
Atom   8H    basis set group =>   3
Atom   9H    basis set group =>   3
Atom  10H    basis set group =>   3
Atom  11H    basis set group =>   3
Atom  12C    basis set group =>   1
Atom  13H    basis set group =>   3
Atom  14H    basis set group =>   3
Atom  15O    basis set group =>   2
Atom  16C    basis set group =>   1
Atom  17C    basis set group =>   1
Atom  18C    basis set group =>   1
Atom  19C    basis set group =>   1
Atom  20O    basis set group =>   2
Atom  21H    basis set group =>   3
Atom  22O    basis set group =>   2
Atom  23H    basis set group =>   3
Atom  24H    basis set group =>   3
Atom  25H    basis set group =>   3
Atom  26H    basis set group =>   3
Atom  27H    basis set group =>   3
Atom  28H    basis set group =>   3
------------------------------------------------------------------------------
                           ORCA GTO INTEGRAL CALCULATION
------------------------------------------------------------------------------

                         BASIS SET STATISTICS AND STARTUP INFO

 # of primitive gaussian shells          ...  246
 # of primitive gaussian functions       ...  350
 # of contracted shells                  ...   97
 # of contracted basis functions         ...  149
 Highest angular momentum                ...    1
 Maximum contraction depth               ...    6
 Integral package used                   ... LIBINT
 Integral threshhold            Thresh   ...  2.500e-11
 Primitive cut-off              TCut     ...  2.500e-12


------------------------------ INTEGRAL EVALUATION ----------------------------


 * One electron integrals 
 Pre-screening matrix                    ... done
 Shell pair data                         ... done (   0.002 sec)

-------------------------------------------------------------------------------
                                 ORCA SCF
-------------------------------------------------------------------------------

------------
SCF SETTINGS
------------
Hamiltonian:
 Density Functional     Method          .... DFT(GTOs)
 Exchange Functional    Exchange        .... B88
   X-Alpha parameter    XAlpha          ....  0.666667
   Becke's b parameter  XBeta           ....  0.004200
 Correlation Functional Correlation     .... LYP
 LDA part of GGA corr.  LDAOpt          .... VWN-5
 Gradients option       PostSCFGGA      .... off
 Hybrid DFT is turned on
   Fraction HF Exchange ScalHFX         ....  0.200000
   Scaling of DF-GGA-X  ScalDFX         ....  0.720000
   Scaling of DF-GGA-C  ScalDFC         ....  0.810000
   Scaling of DF-LDA-C  ScalLDAC        ....  1.000000
   Perturbative correction              ....  0.000000
   Density functional embedding theory  .... OFF
   NL short-range parameter             ....  4.800000


General Settings:
 Integral files         IntName         .... project_8048/ensemble_0_255
 Hartree-Fock type      HFTyp           .... RHF
 Total Charge           Charge          ....    0
 Multiplicity           Mult            ....    1
 Number of Electrons    NEL             ....  102
 Basis Dimension        Dim             ....  149
 Nuclear Repulsion      ENuc            ....    897.9938637515 Eh

Convergence Acceleration:
 DIIS                   CNVDIIS         .... on
   Start iteration      DIISMaxIt       ....    12
   Startup error        DIISStart       ....  0.200000
   # of expansion vecs  DIISMaxEq       ....     5
   Bias factor          DIISBfac        ....   1.050
   Max. coefficient     DIISMaxC        ....  10.000
 Newton-Raphson         CNVNR           .... off
 SOSCF                  CNVSOSCF        .... on
   Start iteration      SOSCFMaxIt      ....   150
   Startup grad/error   SOSCFStart      ....  0.003300
 Level Shifting         CNVShift        .... on
   Level shift para.    LevelShift      ....    0.2500
   Turn off err/grad.   ShiftErr        ....    0.0010
 Zerner damping         CNVZerner       .... off
 Static damping         CNVDamp         .... on
   Fraction old density DampFac         ....    0.7000
   Max. Damping (<1)    DampMax         ....    0.9800
   Min. Damping (>=0)   DampMin         ....    0.0000
   Turn off err/grad.   DampErr         ....    0.1000
 Fernandez-Rico         CNVRico         .... off

SCF Procedure:
 Maximum # iterations   MaxIter         ....   125
 SCF integral mode      SCFMode         .... Direct
   Integral package                     .... LIBINT
 Reset frequency        DirectResetFreq ....    20
 Integral Threshold     Thresh          ....  2.500e-11 Eh
 Primitive CutOff       TCut            ....  2.500e-12 Eh

Convergence Tolerance:
 Convergence Check Mode ConvCheckMode   .... Total+1el-Energy
 Convergence forced     ConvForced      .... 0
 Energy Change          TolE            ....  1.000e-08 Eh
 1-El. energy change                    ....  1.000e-05 Eh
 Orbital Gradient       TolG            ....  1.000e-05
 Orbital Rotation angle TolX            ....  1.000e-05
 DIIS Error             TolErr          ....  5.000e-07


Diagonalization of the overlap matrix:
Smallest eigenvalue                        ... 4.132e-03
Time for diagonalization                   ...    0.008 sec
Threshold for overlap eigenvalues          ... 1.000e-08
Number of eigenvalues below threshold      ... 0
Time for construction of square roots      ...    2.385 sec
Total time needed                          ...    2.393 sec

-------------------
DFT GRID GENERATION
-------------------

General Integration Accuracy     IntAcc      ...  4.340
Radial Grid Type                 RadialGrid  ... Gauss-Chebyshev
Angular Grid (max. acc.)         AngularGrid ... Lebedev-110
Angular grid pruning method      GridPruning ... 3 (G Style)
Weight generation scheme         WeightScheme... Becke
Basis function cutoff            BFCut       ...    1.0000e-11
Integration weight cutoff        WCut        ...    1.0000e-14
Grids for H and He will be reduced by one unit

# of grid points (after initial pruning)     ...  34472 (   0.0 sec)
# of grid points (after weights+screening)   ...  30858 (   0.3 sec)
nearest neighbour list constructed           ...    0.0 sec
Grid point re-assignment to atoms done       ...    0.0 sec
Grid point division into batches done        ...    0.0 sec
Reduced shell lists constructed in    0.3 sec

Total number of grid points                  ...    30858
Total number of batches                      ...      495
Average number of points per batch           ...       62
Average number of grid points per atom       ...     1064
Average number of shells per batch           ...    61.76 (63.67%)
Average number of basis functions per batch  ...   100.31 (67.32%)
Average number of large shells per batch     ...    43.86 (71.02%)
Average number of large basis fcns per batch ...    72.83 (72.60%)
Maximum spatial batch extension              ...  19.44, 20.10, 22.04 au
Average spatial batch extension              ...   3.28,  3.35,  3.50 au

Time for grid setup =    1.303 sec

------------------------------
INITIAL GUESS: MODEL POTENTIAL
------------------------------
Loading Hartree-Fock densities                     ... done
Calculating cut-offs                               ... done
Setting up the integral package                    ... done
Initializing the effective Hamiltonian             ... done
Starting the Coulomb interaction                   ... done (   0.3 sec)
Reading the grid                                   ... done
Mapping shells                                     ... done
Starting the XC term evaluation                    ... done (   0.4 sec)
  promolecular density results
     # of electrons  =    101.997426559
     EX              =    -83.674263589
     EC              =     -3.464506073
     EX+EC           =    -87.138769662
Transforming the Hamiltonian                       ... done (   0.2 sec)
Diagonalizing the Hamiltonian                      ... done (   0.0 sec)
Back transforming the eigenvectors                 ... done (   0.0 sec)
Now organizing SCF variables                       ... done
                      ------------------
                      INITIAL GUESS DONE (   2.9 sec)
                      ------------------
--------------
SCF ITERATIONS
--------------
ITER       Energy         Delta-E        Max-DP      RMS-DP      [F,P]     Damp
               ***  Starting incremental Fock matrix formation  ***
  0   -652.5336620857   0.000000000000 0.07409465  0.00300220  0.2318162 0.7000
  1   -652.6733307952  -0.139668709441 0.04148882  0.00207107  0.1019176 0.7000
                               ***Turning on DIIS***
  2   -652.7259438738  -0.052613078638 0.05425516  0.00334461  0.0299993 0.0000
  3   -652.8122047225  -0.086260848653 0.02980105  0.00137669  0.0529611 0.0000
  4   -652.8298632905  -0.017658568074 0.00966454  0.00042354  0.0079623 0.0000
  5   -652.8307835581  -0.000920267513 0.00280980  0.00013174  0.0039289 0.0000
                      *** Initiating the SOSCF procedure ***
                           *** Shutting down DIIS ***
                      *** Re-Reading the Fockian *** 
                      *** Removing any level shift *** 
ITER      Energy       Delta-E        Grad      Rot      Max-DP    RMS-DP
  6   -652.83086209  -0.0000785366  0.000204  0.000204  0.001145  0.000056
               *** Restarting incremental Fock matrix formation ***
  7   -652.83086502  -0.0000029271  0.000114  0.000206  0.000924  0.000028
  8   -652.83086374   0.0000012804  0.000203  0.000166  0.000529  0.000017
  9   -652.83086607  -0.0000023309  0.000028  0.000066  0.000169  0.000007
 10   -652.83086600   0.0000000745  0.000038  0.000039  0.000113  0.000004
 11   -652.83086612  -0.0000001272  0.000006  0.000005  0.000031  0.000001
 12   -652.83086612   0.0000000003  0.000010  0.000004  0.000019  0.000001
                  ***Gradient check signals convergence***
              ***Rediagonalizing the Fockian in SOSCF/NRSCF***

               *****************************************************
               *                     SUCCESS                       *
               *           SCF CONVERGED AFTER  13 CYCLES          *
               *****************************************************

Setting up the final grid:

General Integration Accuracy     IntAcc      ...  4.670
Radial Grid Type                 RadialGrid  ... Gauss-Chebyshev
Angular Grid (max. acc.)         AngularGrid ... Lebedev-302
Angular grid pruning method      GridPruning ... 3 (G Style)
Weight generation scheme         WeightScheme... Becke
Basis function cutoff            BFCut       ...    1.0000e-11
Integration weight cutoff        WCut        ...    1.0000e-14
Grids for H and He will be reduced by one unit

# of grid points (after initial pruning)     ... 135060 (   0.1 sec)
# of grid points (after weights+screening)   ... 118321 (   1.4 sec)
nearest neighbour list constructed           ...    0.0 sec
Grid point re-assignment to atoms done       ...    0.0 sec
Grid point division into batches done        ...    0.5 sec
Reduced shell lists constructed in    2.2 sec

Total number of grid points                  ...   118321
Total number of batches                      ...     1864
Average number of points per batch           ...       63
Average number of grid points per atom       ...     4080
Average number of shells per batch           ...    56.34 (58.08%)
Average number of basis functions per batch  ...    91.80 (61.61%)
Average number of large shells per batch     ...    39.22 (69.61%)
Average number of large basis fcns per batch ...    65.26 (71.09%)
Maximum spatial batch extension              ...  21.13, 20.13, 18.66 au
Average spatial batch extension              ...   2.15,  2.19,  2.20 au

Final grid set up in    3.9 sec
Final integration                            ... done (   3.0 sec)
Change in XC energy                          ...     0.000526512
Integrated number of electrons               ...   102.000246771
Previous integrated no of electrons          ...   102.004417785

----------------
TOTAL SCF ENERGY
----------------

Total Energy       :         -652.83033961 Eh          -17764.41667 eV

Components:
Nuclear Repulsion  :          897.99386375 Eh           24435.65532 eV
Electronic Energy  :        -1550.82420337 Eh          -42200.07198 eV
One Electron Energy:        -2674.08651572 Eh          -72765.59342 eV
Two Electron Energy:         1123.26231236 Eh           30565.52144 eV

Virial components:
Potential Energy   :        -1301.81030951 Eh          -35424.05945 eV
Kinetic Energy     :          648.97996989 Eh           17659.64278 eV
Virial Ratio       :            2.00593296


DFT components:
N(Alpha)           :       51.000123385475 electrons
N(Beta)            :       51.000123385475 electrons
N(Total)           :      102.000246770951 electrons
E(X)               :      -67.598442061941 Eh       
E(C)               :       -4.074596677034 Eh       
E(XC)              :      -71.673038738975 Eh       
DFET-embed. en.    :        0.000000000000 Eh       

---------------
SCF CONVERGENCE
---------------

  Last Energy change         ...   -1.9320e-09  Tolerance :   1.0000e-08
  Last MAX-Density change    ...    2.5640e-06  Tolerance :   1.0000e-07
  Last RMS-Density change    ...    9.0680e-08  Tolerance :   5.0000e-09
  Last Orbital Gradient      ...    3.2626e-07  Tolerance :   1.0000e-05
  Last Orbital Rotation      ...    5.1815e-07  Tolerance :   1.0000e-05

             **** THE GBW FILE WAS UPDATED (project_8048/ensemble_0_255.gbw) ****
             **** DENSITY FILE WAS UPDATED (project_8048/ensemble_0_255.scfp) ****
             **** ENERGY FILE WAS UPDATED (project_8048/ensemble_0_255.en.tmp) ****
             **** THE GBW FILE WAS UPDATED (project_8048/ensemble_0_255.gbw) ****
             **** DENSITY FILE WAS UPDATED (project_8048/ensemble_0_255.scfp) ****
----------------
ORBITAL ENERGIES
----------------

  NO   OCC          E(Eh)            E(eV) 
   0   2.0000     -19.158266      -521.3229 
   1   2.0000     -19.147815      -521.0385 
   2   2.0000     -19.132615      -520.6249 
   3   2.0000     -19.130775      -520.5748 
   4   2.0000     -10.290696      -280.0241 
   5   2.0000     -10.236530      -278.5502 
   6   2.0000     -10.234117      -278.4845 
   7   2.0000     -10.230814      -278.3946 
   8   2.0000     -10.230650      -278.3901 
   9   2.0000     -10.218427      -278.0575 
  10   2.0000     -10.196300      -277.4554 
  11   2.0000     -10.195988      -277.4469 
  12   2.0000     -10.169047      -276.7138 
  13   2.0000      -1.047375       -28.5005 
  14   2.0000      -1.017669       -27.6922 
  15   2.0000      -0.964606       -26.2483 
  16   2.0000      -0.952012       -25.9056 
  17   2.0000      -0.795762       -21.6538 
  18   2.0000      -0.771487       -20.9932 
  19   2.0000      -0.757092       -20.6015 
  20   2.0000      -0.736343       -20.0369 
  21   2.0000      -0.664516       -18.0824 
  22   2.0000      -0.607259       -16.5244 
  23   2.0000      -0.599245       -16.3063 
  24   2.0000      -0.584157       -15.8957 
  25   2.0000      -0.564173       -15.3519 
  26   2.0000      -0.519722       -14.1423 
  27   2.0000      -0.503851       -13.7105 
  28   2.0000      -0.492387       -13.3985 
  29   2.0000      -0.479355       -13.0439 
  30   2.0000      -0.466066       -12.6823 
  31   2.0000      -0.450818       -12.2674 
  32   2.0000      -0.438364       -11.9285 
  33   2.0000      -0.425618       -11.5817 
  34   2.0000      -0.421899       -11.4805 
  35   2.0000      -0.403508       -10.9800 
  36   2.0000      -0.387697       -10.5498 
  37   2.0000      -0.378493       -10.2993 
  38   2.0000      -0.373424       -10.1614 
  39   2.0000      -0.369452       -10.0533 
  40   2.0000      -0.365112        -9.9352 
  41   2.0000      -0.356410        -9.6984 
  42   2.0000      -0.350234        -9.5304 
  43   2.0000      -0.334149        -9.0927 
  44   2.0000      -0.312955        -8.5159 
  45   2.0000      -0.310357        -8.4452 
  46   2.0000      -0.291997        -7.9456 
  47   2.0000      -0.267895        -7.2898 
  48   2.0000      -0.261140        -7.1060 
  49   2.0000      -0.252438        -6.8692 
  50   2.0000      -0.231976        -6.3124 
  51   0.0000       0.050203         1.3661 
  52   0.0000       0.061105         1.6628 
  53   0.0000       0.075557         2.0560 
  54   0.0000       0.093811         2.5527 
  55   0.0000       0.105521         2.8714 
  56   0.0000       0.105748         2.8775 
  57   0.0000       0.109373         2.9762 
  58   0.0000       0.121895         3.3169 
  59   0.0000       0.128963         3.5093 
  60   0.0000       0.137335         3.7371 
  61   0.0000       0.143971         3.9177 
  62   0.0000       0.149677         4.0729 
  63   0.0000       0.157633         4.2894 
  64   0.0000       0.159107         4.3295 
  65   0.0000       0.166868         4.5407 
  66   0.0000       0.179086         4.8732 
  67   0.0000       0.187820         5.1108 
  68   0.0000       0.188864         5.1393 
  69   0.0000       0.195939         5.3318 
  70   0.0000       0.210329         5.7234 
  71   0.0000       0.211918         5.7666 
  72   0.0000       0.228276         6.2117 
  73   0.0000       0.239624         6.5205 
  74   0.0000       0.243325         6.6212 
  75   0.0000       0.254192         6.9169 
  76   0.0000       0.272491         7.4149 
  77   0.0000       0.276290         7.5182 
  78   0.0000       0.281948         7.6722 
  79   0.0000       0.297534         8.0963 
  80   0.0000       0.313537         8.5318 
  81   0.0000       0.512024        13.9329 
  82   0.0000       0.522255        14.2113 
  83   0.0000       0.534682        14.5494 
  84   0.0000       0.550170        14.9709 
  85   0.0000       0.560398        15.2492 
  86   0.0000       0.568195        15.4614 
  87   0.0000       0.581089        15.8122 
  88   0.0000       0.587098        15.9758 
  89   0.0000       0.591293        16.0899 
  90   0.0000       0.597832        16.2678 
  91   0.0000       0.604779        16.4569 
  92   0.0000       0.625488        17.0204 
  93   0.0000       0.635066        17.2810 
  94   0.0000       0.642152        17.4738 
  95   0.0000       0.655126        17.8269 
  96   0.0000       0.667378        18.1603 
  97   0.0000       0.675656        18.3855 
  98   0.0000       0.705200        19.1895 
  99   0.0000       0.711754        19.3678 
 100   0.0000       0.747101        20.3296 
 101   0.0000       0.758104        20.6291 
 102   0.0000       0.795678        21.6515 
 103   0.0000       0.805383        21.9156 
 104   0.0000       0.819272        22.2935 
 105   0.0000       0.840326        22.8664 
 106   0.0000       0.843661        22.9572 
 107   0.0000       0.853642        23.2288 
 108   0.0000       0.867876        23.6161 
 109   0.0000       0.881571        23.9888 
 110   0.0000       0.893579        24.3155 
 111   0.0000       0.901513        24.5314 
 112   0.0000       0.908428        24.7196 
 113   0.0000       0.916161        24.9300 
 114   0.0000       0.920742        25.0547 
 115   0.0000       0.937068        25.4989 
 116   0.0000       0.946735        25.7620 
 117   0.0000       0.951871        25.9017 
 118   0.0000       0.964484        26.2449 
 119   0.0000       0.974731        26.5238 
 120   0.0000       0.993220        27.0269 
 121   0.0000       1.005135        27.3511 
 122   0.0000       1.014607        27.6088 
 123   0.0000       1.053360        28.6634 
 124   0.0000       1.057173        28.7671 
 125   0.0000       1.062486        28.9117 
 126   0.0000       1.097939        29.8764 
 127   0.0000       1.116262        30.3750 
 128   0.0000       1.125236        30.6192 
 129   0.0000       1.140601        31.0373 
 130   0.0000       1.193987        32.4901 
 131   0.0000       1.247760        33.9533 
 132   0.0000       1.295667        35.2569 
 133   0.0000       1.318178        35.8694 
 134   0.0000       1.339351        36.4456 
 135   0.0000       1.371362        37.3166 
 136   0.0000       1.397481        38.0274 
 137   0.0000       1.427605        38.8471 
 138   0.0000       1.441349        39.2211 
 139   0.0000       1.479062        40.2473 
 140   0.0000       1.490667        40.5631 
 141   0.0000       1.546690        42.0876 
 142   0.0000       1.656899        45.0865 
 143   0.0000       1.699281        46.2398 
 144   0.0000       1.782061        48.4923 
 145   0.0000       1.904111        51.8135 
 146   0.0000       1.913781        52.0766 
 147   0.0000       2.083451        56.6936 
 148   0.0000       2.144034        58.3421 

                    ********************************
                    * MULLIKEN POPULATION ANALYSIS *
                    ********************************

-----------------------
MULLIKEN ATOMIC CHARGES
-----------------------
   0 C :    0.290947
   1 C :   -0.262477
   2 C :   -0.298154
   3 C :   -0.024306
   4 O :   -0.494143
   5 H :    0.160247
   6 H :    0.150690
   7 H :    0.161821
   8 H :    0.147655
   9 H :    0.158836
  10 H :    0.143203
  11 H :    0.152005
  12 C :   -0.037682
  13 H :    0.178058
  14 H :    0.134499
  15 O :   -0.533920
  16 C :    0.075641
  17 C :    0.074743
  18 C :   -0.291215
  19 C :   -0.018956
  20 O :   -0.514688
  21 H :    0.156925
  22 O :   -0.605096
  23 H :    0.150196
  24 H :    0.141013
  25 H :    0.186798
  26 H :    0.136740
  27 H :    0.132911
  28 H :    0.347710
Sum of atomic charges:    0.0000000

--------------------------------
MULLIKEN REDUCED ORBITAL CHARGES
--------------------------------
  0 C s       :     3.238852  s :     3.238852
      pz      :     0.790072  p :     2.470201
      px      :     0.682006
      py      :     0.998123
  1 C s       :     3.306403  s :     3.306403
      pz      :     0.980330  p :     2.956074
      px      :     1.030032
      py      :     0.945713
  2 C s       :     3.315833  s :     3.315833
      pz      :     0.909552  p :     2.982321
      px      :     1.086195
      py      :     0.986573
  3 C s       :     3.267718  s :     3.267718
      pz      :     0.935159  p :     2.756589
      px      :     1.077104
      py      :     0.744325
  4 O s       :     3.948358  s :     3.948358
      pz      :     1.311348  p :     4.545785
      px      :     1.725102
      py      :     1.509335
  5 H s       :     0.839753  s :     0.839753
  6 H s       :     0.849310  s :     0.849310
  7 H s       :     0.838179  s :     0.838179
  8 H s       :     0.852345  s :     0.852345
  9 H s       :     0.841164  s :     0.841164
 10 H s       :     0.856797  s :     0.856797
 11 H s       :     0.847995  s :     0.847995
 12 C s       :     3.294515  s :     3.294515
      pz      :     0.761641  p :     2.743167
      px      :     1.012355
      py      :     0.969170
 13 H s       :     0.821942  s :     0.821942
 14 H s       :     0.865501  s :     0.865501
 15 O s       :     3.945631  s :     3.945631
      pz      :     1.429800  p :     4.588289
      px      :     1.297134
      py      :     1.861354
 16 C s       :     3.267215  s :     3.267215
      pz      :     1.025984  p :     2.657144
      px      :     0.845273
      py      :     0.785887
 17 C s       :     3.300956  s :     3.300956
      pz      :     0.908476  p :     2.624301
      px      :     0.840878
      py      :     0.874947
 18 C s       :     3.308006  s :     3.308006
      pz      :     0.973157  p :     2.983209
      px      :     0.958095
      py      :     1.051957
 19 C s       :     3.268290  s :     3.268290
      pz      :     0.680913  p :     2.750666
      px      :     1.041047
      py      :     1.028706
 20 O s       :     3.943777  s :     3.943777
      pz      :     1.333010  p :     4.570911
      px      :     1.677822
      py      :     1.560078
 21 H s       :     0.843075  s :     0.843075
 22 O s       :     3.949220  s :     3.949220
      pz      :     1.905976  p :     4.655876
      px      :     1.536644
      py      :     1.213256
 23 H s       :     0.849804  s :     0.849804
 24 H s       :     0.858987  s :     0.858987
 25 H s       :     0.813202  s :     0.813202
 26 H s       :     0.863260  s :     0.863260
 27 H s       :     0.867089  s :     0.867089
 28 H s       :     0.652290  s :     0.652290


                     *******************************
                     * LOEWDIN POPULATION ANALYSIS *
                     *******************************

----------------------
LOEWDIN ATOMIC CHARGES
----------------------
   0 C :    0.190862
   1 C :   -0.219678
   2 C :   -0.218067
   3 C :   -0.036230
   4 O :   -0.304673
   5 H :    0.108591
   6 H :    0.117286
   7 H :    0.127006
   8 H :    0.117261
   9 H :    0.116586
  10 H :    0.099807
  11 H :    0.107743
  12 C :   -0.049172
  13 H :    0.125210
  14 H :    0.104424
  15 O :   -0.364995
  16 C :    0.017174
  17 C :    0.045599
  18 C :   -0.244884
  19 C :   -0.032517
  20 O :   -0.324377
  21 H :    0.121058
  22 O :   -0.449946
  23 H :    0.119181
  24 H :    0.113997
  25 H :    0.135816
  26 H :    0.098476
  27 H :    0.094068
  28 H :    0.284393

-------------------------------
LOEWDIN REDUCED ORBITAL CHARGES
-------------------------------
  0 C s       :     2.982089  s :     2.982089
      pz      :     0.914143  p :     2.827049
      px      :     0.828069
      py      :     1.084837
  1 C s       :     2.979316  s :     2.979316
      pz      :     1.075580  p :     3.240362
      px      :     1.107095
      py      :     1.057687
  2 C s       :     2.973126  s :     2.973126
      pz      :     1.032880  p :     3.244941
      px      :     1.133016
      py      :     1.079044
  3 C s       :     2.985189  s :     2.985189
      pz      :     1.036788  p :     3.051041
      px      :     1.126217
      py      :     0.888036
  4 O s       :     3.609246  s :     3.609246
      pz      :     1.376957  p :     4.695427
      px      :     1.757327
      py      :     1.561143
  5 H s       :     0.891409  s :     0.891409
  6 H s       :     0.882714  s :     0.882714
  7 H s       :     0.872994  s :     0.872994
  8 H s       :     0.882739  s :     0.882739
  9 H s       :     0.883414  s :     0.883414
 10 H s       :     0.900193  s :     0.900193
 11 H s       :     0.892257  s :     0.892257
 12 C s       :     3.004561  s :     3.004561
      pz      :     0.870108  p :     3.044611
      px      :     1.088835
      py      :     1.085668
 13 H s       :     0.874790  s :     0.874790
 14 H s       :     0.895576  s :     0.895576
 15 O s       :     3.650106  s :     3.650106
      pz      :     1.479062  p :     4.714889
      px      :     1.361705
      py      :     1.874121
 16 C s       :     2.969772  s :     2.969772
      pz      :     1.096682  p :     3.013054
      px      :     0.973175
      py      :     0.943197
 17 C s       :     2.975633  s :     2.975633
      pz      :     1.044856  p :     2.978768
      px      :     0.975663
      py      :     0.958249
 18 C s       :     2.983342  s :     2.983342
      pz      :     1.076953  p :     3.261542
      px      :     1.063298
      py      :     1.121292
 19 C s       :     2.982840  s :     2.982840
      pz      :     0.827279  p :     3.049677
      px      :     1.111372
      py      :     1.111026
 20 O s       :     3.601168  s :     3.601168
      pz      :     1.397487  p :     4.723210
      px      :     1.714896
      py      :     1.610826
 21 H s       :     0.878942  s :     0.878942
 22 O s       :     3.692295  s :     3.692295
      pz      :     1.914981  p :     4.757652
      px      :     1.574759
      py      :     1.267911
 23 H s       :     0.880819  s :     0.880819
 24 H s       :     0.886003  s :     0.886003
 25 H s       :     0.864184  s :     0.864184
 26 H s       :     0.901524  s :     0.901524
 27 H s       :     0.905932  s :     0.905932
 28 H s       :     0.715607  s :     0.715607


                      *****************************
                      * MAYER POPULATION ANALYSIS *
                      *****************************

  NA   - Mulliken gross atomic population
  ZA   - Total nuclear charge
  QA   - Mulliken gross atomic charge
  VA   - Mayer's total valence
  BVA  - Mayer's bonded valence
  FA   - Mayer's free valence

  ATOM       NA         ZA         QA         VA         BVA        FA
  0 C      5.7091     6.0000     0.2909     3.6259     3.6259     0.0000
  1 C      6.2625     6.0000    -0.2625     3.7120     3.7120     0.0000
  2 C      6.2982     6.0000    -0.2982     3.7561     3.7561     0.0000
  3 C      6.0243     6.0000    -0.0243     3.6542     3.6542     0.0000
  4 O      8.4941     8.0000    -0.4941     1.8260     1.8260    -0.0000
  5 H      0.8398     1.0000     0.1602     0.9283     0.9283     0.0000
  6 H      0.8493     1.0000     0.1507     0.9307     0.9307    -0.0000
  7 H      0.8382     1.0000     0.1618     0.9369     0.9369     0.0000
  8 H      0.8523     1.0000     0.1477     0.9364     0.9364     0.0000
  9 H      0.8412     1.0000     0.1588     0.9343     0.9343     0.0000
 10 H      0.8568     1.0000     0.1432     0.9281     0.9281     0.0000
 11 H      0.8480     1.0000     0.1520     0.9294     0.9294     0.0000
 12 C      6.0377     6.0000    -0.0377     3.6037     3.6037     0.0000
 13 H      0.8219     1.0000     0.1781     0.9308     0.9308    -0.0000
 14 H      0.8655     1.0000     0.1345     0.9298     0.9298     0.0000
 15 O      8.5339     8.0000    -0.5339     1.7884     1.7884     0.0000
 16 C      5.9244     6.0000     0.0756     3.6003     3.6003     0.0000
 17 C      5.9253     6.0000     0.0747     3.6573     3.6573     0.0000
 18 C      6.2912     6.0000    -0.2912     3.6833     3.6833    -0.0000
 19 C      6.0190     6.0000    -0.0190     3.6750     3.6750     0.0000
 20 O      8.5147     8.0000    -0.5147     1.7791     1.7791    -0.0000
 21 H      0.8431     1.0000     0.1569     0.9361     0.9361    -0.0000
 22 O      8.6051     8.0000    -0.6051     1.7504     1.7504    -0.0000
 23 H      0.8498     1.0000     0.1502     0.9399     0.9399    -0.0000
 24 H      0.8590     1.0000     0.1410     0.9391     0.9391    -0.0000
 25 H      0.8132     1.0000     0.1868     0.9449     0.9449     0.0000
 26 H      0.8633     1.0000     0.1367     0.9314     0.9314     0.0000
 27 H      0.8671     1.0000     0.1329     0.9296     0.9296     0.0000
 28 H      0.6523     1.0000     0.3477     0.8499     0.8499     0.0000

  Mayer bond orders larger than 0.100000
B(  0-C ,  1-C ) :   0.9296 B(  0-C ,  4-O ) :   0.9135 B(  0-C ,  5-H ) :   0.9174 
B(  0-C , 15-O ) :   0.8191 B(  1-C ,  2-C ) :   0.9541 B(  1-C ,  6-H ) :   0.9318 
B(  1-C ,  7-H ) :   0.9340 B(  2-C ,  3-C ) :   0.9481 B(  2-C ,  8-H ) :   0.9445 
B(  2-C ,  9-H ) :   0.9446 B(  3-C ,  4-O ) :   0.8347 B(  3-C , 10-H ) :   0.9256 
B(  3-C , 11-H ) :   0.9403 B( 12-C , 13-H ) :   0.8964 B( 12-C , 14-H ) :   0.9205 
B( 12-C , 15-O ) :   0.8623 B( 12-C , 16-C ) :   0.8792 B( 16-C , 17-C ) :   0.9125 
B( 16-C , 20-O ) :   0.8803 B( 16-C , 21-H ) :   0.9203 B( 17-C , 18-C ) :   0.9307 
B( 17-C , 22-O ) :   0.8803 B( 17-C , 23-H ) :   0.9336 B( 18-C , 19-C ) :   0.9428 
B( 18-C , 24-H ) :   0.9363 B( 18-C , 25-H ) :   0.9034 B( 19-C , 20-O ) :   0.8470 
B( 19-C , 26-H ) :   0.9276 B( 19-C , 27-H ) :   0.9371 B( 22-O , 28-H ) :   0.8097 


-------
TIMINGS
-------

Total SCF time: 0 days 0 hours 9 min 18 sec 

Total time                  ....     558.497 sec
Sum of individual times     ....     370.891 sec  ( 66.4%)

Fock matrix formation       ....     337.235 sec  ( 60.4%)
  XC integration            ....      92.709 sec  ( 27.5% of F)
    Basis function eval.    ....       3.229 sec  (  3.5% of XC)
    Density eval.           ....       4.858 sec  (  5.2% of XC)
    XC-Functional eval.     ....       3.932 sec  (  4.2% of XC)
    XC-Potential eval.      ....       1.376 sec  (  1.5% of XC)
Diagonalization             ....       5.327 sec  (  1.0%)
Density matrix formation    ....       0.011 sec  (  0.0%)
Population analysis         ....       4.565 sec  (  0.8%)
Initial guess               ....       1.620 sec  (  0.3%)
Orbital Transformation      ....       0.000 sec  (  0.0%)
Orbital Orthonormalization  ....       0.000 sec  (  0.0%)
DIIS solution               ....      16.760 sec  (  3.0%)
SOSCF solution              ....       0.157 sec  (  0.0%)
Grid generation             ....       5.216 sec  (  0.9%)

-------------------------   --------------------
FINAL SINGLE POINT ENERGY      -652.830339614800
-------------------------   --------------------

------------------------------------------------------------------------------
                         ORCA SCF GRADIENT CALCULATION
------------------------------------------------------------------------------

Gradient of the Kohn-Sham DFT energy:
Kohn-Sham wavefunction type      ... RKS
Hartree-Fock exchange scaling    ...    0.200
Number of operators              ...    1
Number of atoms                  ...   29
Basis set dimensions             ...  149
Integral neglect threshold       ... 2.5e-11
Integral primitive cutoff        ... 2.5e-12

Nuclear repulsion gradient       ... done
One Electron Gradient            ... done
Pre-screening matrix             ... done
Starting the two electron gradient:
Two electron gradient done
Exchange-correlation gradient    ... done

------------------
CARTESIAN GRADIENT
------------------

   1   C   :    0.009447631    0.002080728   -0.021347481
   2   C   :    0.011661801   -0.003526457   -0.003324676
   3   C   :   -0.000212257   -0.000428597   -0.001771770
   4   C   :   -0.006290547   -0.006734869   -0.001247809
   5   O   :    0.004124848   -0.005752886    0.016585378
   6   H   :    0.007379928    0.000503933   -0.001753737
   7   H   :    0.000368380    0.002966566    0.000270495
   8   H   :    0.000673649    0.002175657   -0.001205030
   9   H   :   -0.000413268    0.000768245    0.000004261
  10   H   :   -0.000763989    0.000813890    0.001063292
  11   H   :   -0.001062576    0.000470700    0.000317757
  12   H   :    0.000210413    0.001056388    0.000393274
  13   C   :   -0.009771281    0.008427065    0.008016373
  14   H   :    0.004110338    0.002292765    0.007171900
  15   H   :   -0.002878759   -0.005898016    0.011004024
  16   O   :   -0.018218631   -0.001018965   -0.031420849
  17   C   :   -0.010100744   -0.012450019    0.014809415
  18   C   :    0.004820890    0.033483230   -0.001665902
  19   C   :    0.002743315    0.003160563    0.005442733
  20   C   :    0.000684845   -0.001029697    0.002886471
  21   O   :    0.002141527    0.001629687   -0.000208567
  22   H   :    0.002812843   -0.000402662   -0.000383392
  23   O   :   -0.043780516    0.024619442    0.000779950
  24   H   :    0.007142915    0.008545410   -0.002886220
  25   H   :    0.003419140    0.001972936   -0.003557473
  26   H   :    0.002678810    0.004195209   -0.004391274
  27   H   :    0.001483612    0.001247965   -0.000742791
  28   H   :   -0.000664758    0.000857551    0.000088193
  29   H   :    0.028252441   -0.064025765    0.007073454

Difference to translation invariance:
           :    0.0000000000   -0.0000000000   -0.0000000000

Norm of the cartesian gradient     ...    0.1112162864
RMS gradient                       ...    0.0119236375
MAX gradient                       ...    0.0640257647

-------
TIMINGS
-------

Total SCF gradient time            ...       51.201 sec

One electron gradient       ....       0.342 sec  (  0.7%)
Prescreening matrices       ....       0.055 sec  (  0.1%)
Two electron gradient       ....      40.312 sec  ( 78.7%)
XC gradient                 ....       9.505 sec  ( 18.6%)
------------------------------------------------------------------------------
                         ORCA GEOMETRY RELAXATION STEP
------------------------------------------------------------------------------

Reading the OPT-File                    .... done
Getting information on internals        .... done
Copying old internal coords+grads       .... done
Making the new internal coordinates     .... (new redundants).... done
Validating the new internal coordinates .... (new redundants).... done
Calculating the B-matrix                .... done
Calculating the G,G- and P matrices     .... done
Transforming gradient to internals      .... done
Projecting the internal gradient        .... done
Number of atoms                         ....  29
Number of internal coordinates          .... 172
Current Energy                          ....  -652.830339615 Eh
Current gradient norm                   ....     0.111216286 Eh/bohr
Maximum allowed component of the step   ....  0.300
Current trust radius                    ....  0.300
Evaluating the initial hessian          ....  (Almloef) done
Projecting the Hessian                  .... done
Forming the augmented Hessian           .... done
Diagonalizing the augmented Hessian     .... done
Last element of RFO vector              ....  0.918214062
Lowest eigenvalues of augmented Hessian:
 -0.043930487  0.007806953  0.033063650  0.033327850  0.037465924
Length of the computed step             ....  0.431364016
Warning: the length of the step is outside the trust region - taking restricted step instead
The input lambda is                     ....    -0.043930
   iter:   1  x=   -0.087312  g=    2.214637 f(x)=     0.096075
   iter:   2  x=   -0.120669  g=    0.978199 f(x)=     0.032629
   iter:   3  x=   -0.130816  g=    0.632567 f(x)=     0.006419
   iter:   4  x=   -0.131447  g=    0.564414 f(x)=     0.000356
   iter:   5  x=   -0.131449  g=    0.560556 f(x)=     0.000001
   iter:   6  x=   -0.131449  g=    0.560543 f(x)=     0.000000
   iter:   7  x=   -0.131449  g=    0.560543 f(x)=     0.000000
The output lambda is                    ....    -0.131449 (7 iterations)
The final length of the internal step   ....  0.300000000
Converting the step to cartesian space:
 Initial RMS(Int)=    0.0228747855
Transforming coordinates:
 Iter   0:  RMS(Cart)=    0.1269913457 RMS(Int)=    0.4785561753
 Iter   1:  RMS(Cart)=    0.0048788538 RMS(Int)=    0.0017775413
 Iter   2:  RMS(Cart)=    0.0004110615 RMS(Int)=    0.0001210844
 Iter   3:  RMS(Cart)=    0.0000276407 RMS(Int)=    0.0000110003
 Iter   4:  RMS(Cart)=    0.0000021898 RMS(Int)=    0.0000008418
 Iter   5:  RMS(Cart)=    0.0000001651 RMS(Int)=    0.0000000899
 Iter   6:  RMS(Cart)=    0.0000000083 RMS(Int)=    0.0000000049
Imposing constraints:
 Iter   0:  RMS(Cart)=    0.0001039641 RMS(Int)=    0.0000938027
 Iter   1:  RMS(Cart)=    0.0000555957 RMS(Int)=    0.0000761660
[...]
  29   2.0000      -0.485204       -13.2031 
  30   2.0000      -0.473568       -12.8864 
  31   2.0000      -0.461270       -12.5518 
  32   2.0000      -0.447121       -12.1668 
  33   2.0000      -0.436358       -11.8739 
  34   2.0000      -0.419212       -11.4073 
  35   2.0000      -0.411760       -11.2046 
  36   2.0000      -0.395211       -10.7542 
  37   2.0000      -0.384545       -10.4640 
  38   2.0000      -0.375843       -10.2272 
  39   2.0000      -0.368422       -10.0253 
  40   2.0000      -0.362757        -9.8711 
  41   2.0000      -0.358000        -9.7417 
  42   2.0000      -0.348737        -9.4896 
  43   2.0000      -0.332427        -9.0458 
  44   2.0000      -0.323060        -8.7909 
  45   2.0000      -0.307903        -8.3785 
  46   2.0000      -0.294726        -8.0199 
  47   2.0000      -0.267864        -7.2889 
  48   2.0000      -0.264817        -7.2060 
  49   2.0000      -0.257494        -7.0068 
  50   2.0000      -0.232973        -6.3395 
  51   0.0000       0.068464         1.8630 
  52   0.0000       0.078334         2.1316 
  53   0.0000       0.096108         2.6152 
  54   0.0000       0.102367         2.7856 
  55   0.0000       0.106910         2.9092 
  56   0.0000       0.108789         2.9603 
  57   0.0000       0.116603         3.1729 
  58   0.0000       0.127875         3.4797 
  59   0.0000       0.134925         3.6715 
  60   0.0000       0.138365         3.7651 
  61   0.0000       0.151397         4.1197 
  62   0.0000       0.155829         4.2403 
  63   0.0000       0.160376         4.3640 
  64   0.0000       0.165015         4.4903 
  65   0.0000       0.171886         4.6773 
  66   0.0000       0.181397         4.9361 
  67   0.0000       0.187695         5.1074 
  68   0.0000       0.205768         5.5992 
  69   0.0000       0.209040         5.6883 
  70   0.0000       0.214626         5.8403 
  71   0.0000       0.228995         6.2313 
  72   0.0000       0.233331         6.3493 
  73   0.0000       0.238092         6.4788 
  74   0.0000       0.248520         6.7626 
  75   0.0000       0.264207         7.1894 
  76   0.0000       0.267312         7.2739 
  77   0.0000       0.271070         7.3762 
  78   0.0000       0.293414         7.9842 
  79   0.0000       0.307079         8.3560 
  80   0.0000       0.314517         8.5584 
  81   0.0000       0.512011        13.9325 
  82   0.0000       0.516176        14.0459 
  83   0.0000       0.539902        14.6915 
  84   0.0000       0.547297        14.8927 
  85   0.0000       0.558065        15.1857 
  86   0.0000       0.572260        15.5720 
  87   0.0000       0.584322        15.9002 
  88   0.0000       0.587231        15.9794 
  89   0.0000       0.592975        16.1357 
  90   0.0000       0.600015        16.3272 
  91   0.0000       0.604569        16.4512 
  92   0.0000       0.626818        17.0566 
  93   0.0000       0.633599        17.2411 
  94   0.0000       0.647086        17.6081 
  95   0.0000       0.653232        17.7753 
  96   0.0000       0.657300        17.8860 
  97   0.0000       0.673637        18.3306 
  98   0.0000       0.716802        19.5052 
  99   0.0000       0.722143        19.6505 
 100   0.0000       0.747194        20.3322 
 101   0.0000       0.763208        20.7679 
 102   0.0000       0.801601        21.8127 
 103   0.0000       0.816433        22.2163 
 104   0.0000       0.826849        22.4997 
 105   0.0000       0.838965        22.8294 
 106   0.0000       0.844363        22.9763 
 107   0.0000       0.853691        23.2301 
 108   0.0000       0.875260        23.8170 
 109   0.0000       0.881250        23.9800 
 110   0.0000       0.889215        24.1968 
 111   0.0000       0.898572        24.4514 
 112   0.0000       0.901630        24.5346 
 113   0.0000       0.905275        24.6338 
 114   0.0000       0.918907        25.0047 
 115   0.0000       0.933057        25.3898 
 116   0.0000       0.936762        25.4906 
 117   0.0000       0.950264        25.8580 
 118   0.0000       0.956710        26.0334 
 119   0.0000       0.968629        26.3577 
 120   0.0000       0.992248        27.0005 
 121   0.0000       0.999630        27.2013 
 122   0.0000       1.011024        27.5114 
 123   0.0000       1.038206        28.2510 
 124   0.0000       1.048502        28.5312 
 125   0.0000       1.052849        28.6495 
 126   0.0000       1.102199        29.9923 
 127   0.0000       1.118506        30.4361 
 128   0.0000       1.124645        30.6031 
 129   0.0000       1.141633        31.0654 
 130   0.0000       1.185708        32.2647 
 131   0.0000       1.249078        33.9891 
 132   0.0000       1.277731        34.7688 
 133   0.0000       1.300127        35.3782 
 134   0.0000       1.318768        35.8855 
 135   0.0000       1.352372        36.7999 
 136   0.0000       1.400487        38.1092 
 137   0.0000       1.435269        39.0557 
 138   0.0000       1.452387        39.5215 
 139   0.0000       1.478844        40.2414 
 140   0.0000       1.538056        41.8526 
 141   0.0000       1.556532        42.3554 
 142   0.0000       1.684151        45.8281 
 143   0.0000       1.723830        46.9078 
 144   0.0000       1.775325        48.3090 
 145   0.0000       1.903883        51.8073 
 146   0.0000       1.927535        52.4509 
 147   0.0000       2.074262        56.4435 
 148   0.0000       2.154138        58.6171 

                    ********************************
                    * MULLIKEN POPULATION ANALYSIS *
                    ********************************

-----------------------
MULLIKEN ATOMIC CHARGES
-----------------------
   0 C :    0.306521
   1 C :   -0.258353
   2 C :   -0.306061
   3 C :   -0.022185
   4 O :   -0.499228
   5 H :    0.154691
   6 H :    0.145716
   7 H :    0.158740
   8 H :    0.148785
   9 H :    0.154338
  10 H :    0.146871
  11 H :    0.153501
  12 C :   -0.017379
  13 H :    0.163602
  14 H :    0.136463
  15 O :   -0.544157
  16 C :    0.079401
  17 C :    0.077785
  18 C :   -0.288637
  19 C :   -0.025470
  20 O :   -0.520003
  21 H :    0.148029
  22 O :   -0.606087
  23 H :    0.149518
  24 H :    0.147879
  25 H :    0.171005
  26 H :    0.143936
  27 H :    0.138838
  28 H :    0.361943
Sum of atomic charges:    0.0000000

--------------------------------
MULLIKEN REDUCED ORBITAL CHARGES
--------------------------------
  0 C s       :     3.195080  s :     3.195080
      pz      :     0.824013  p :     2.498399
      px      :     0.670944
      py      :     1.003441
  1 C s       :     3.304213  s :     3.304213
      pz      :     0.966728  p :     2.954140
      px      :     1.043544
      py      :     0.943869
  2 C s       :     3.316786  s :     3.316786
      pz      :     0.922327  p :     2.989275
      px      :     1.079430
      py      :     0.987518
  3 C s       :     3.270594  s :     3.270594
      pz      :     0.938945  p :     2.751591
      px      :     1.063117
      py      :     0.749529
  4 O s       :     3.943643  s :     3.943643
      pz      :     1.357016  p :     4.555586
      px      :     1.674750
      py      :     1.523820
  5 H s       :     0.845309  s :     0.845309
  6 H s       :     0.854284  s :     0.854284
  7 H s       :     0.841260  s :     0.841260
  8 H s       :     0.851215  s :     0.851215
  9 H s       :     0.845662  s :     0.845662
 10 H s       :     0.853129  s :     0.853129
 11 H s       :     0.846499  s :     0.846499
 12 C s       :     3.264200  s :     3.264200
      pz      :     0.790592  p :     2.753179
      px      :     0.983922
      py      :     0.978664
 13 H s       :     0.836398  s :     0.836398
 14 H s       :     0.863537  s :     0.863537
 15 O s       :     3.912746  s :     3.912746
      pz      :     1.483571  p :     4.631410
      px      :     1.296652
      py      :     1.851187
 16 C s       :     3.256055  s :     3.256055
      pz      :     1.016950  p :     2.664544
      px      :     0.855661
      py      :     0.791934
 17 C s       :     3.266053  s :     3.266053
      pz      :     0.895087  p :     2.656162
      px      :     0.856866
      py      :     0.904209
 18 C s       :     3.308152  s :     3.308152
      pz      :     0.976749  p :     2.980486
      px      :     0.967596
      py      :     1.036141
 19 C s       :     3.270578  s :     3.270578
      pz      :     0.691170  p :     2.754892
      px      :     1.042458
      py      :     1.021264
 20 O s       :     3.945014  s :     3.945014
      pz      :     1.364479  p :     4.574989
      px      :     1.689516
      py      :     1.520993
 21 H s       :     0.851971  s :     0.851971
 22 O s       :     3.919932  s :     3.919932
      pz      :     1.823546  p :     4.686154
      px      :     1.562530
      py      :     1.300078
 23 H s       :     0.850482  s :     0.850482
 24 H s       :     0.852121  s :     0.852121
 25 H s       :     0.828995  s :     0.828995
 26 H s       :     0.856064  s :     0.856064
 27 H s       :     0.861162  s :     0.861162
 28 H s       :     0.638057  s :     0.638057


                     *******************************
                     * LOEWDIN POPULATION ANALYSIS *
                     *******************************

----------------------
LOEWDIN ATOMIC CHARGES
----------------------
   0 C :    0.184364
   1 C :   -0.220971
   2 C :   -0.219536
   3 C :   -0.033335
   4 O :   -0.308209
   5 H :    0.101937
   6 H :    0.114284
   7 H :    0.124784
   8 H :    0.118031
   9 H :    0.114388
  10 H :    0.102751
  11 H :    0.108458
  12 C :   -0.041624
  13 H :    0.115504
  14 H :    0.104377
  15 O :   -0.344918
  16 C :    0.008696
  17 C :    0.038102
  18 C :   -0.242664
  19 C :   -0.034131
  20 O :   -0.325601
  21 H :    0.112676
  22 O :   -0.419246
  23 H :    0.114932
  24 H :    0.118312
  25 H :    0.128230
  26 H :    0.101704
  27 H :    0.097453
  28 H :    0.281252

-------------------------------
LOEWDIN REDUCED ORBITAL CHARGES
-------------------------------
  0 C s       :     2.952412  s :     2.952412
      pz      :     0.937764  p :     2.863224
      px      :     0.839010
      py      :     1.086451
  1 C s       :     2.980797  s :     2.980797
      pz      :     1.069791  p :     3.240174
      px      :     1.112320
      py      :     1.058062
  2 C s       :     2.971425  s :     2.971425
      pz      :     1.041150  p :     3.248111
      px      :     1.127947
      py      :     1.079014
  3 C s       :     2.987734  s :     2.987734
      pz      :     1.036215  p :     3.045601
      px      :     1.119861
      py      :     0.889524
  4 O s       :     3.601159  s :     3.601159
      pz      :     1.420436  p :     4.707050
      px      :     1.714121
      py      :     1.572493
  5 H s       :     0.898063  s :     0.898063
  6 H s       :     0.885716  s :     0.885716
  7 H s       :     0.875216  s :     0.875216
  8 H s       :     0.881969  s :     0.881969
  9 H s       :     0.885612  s :     0.885612
 10 H s       :     0.897249  s :     0.897249
 11 H s       :     0.891542  s :     0.891542
 12 C s       :     2.978391  s :     2.978391
      pz      :     0.911265  p :     3.063232
      px      :     1.064763
      py      :     1.087204
 13 H s       :     0.884496  s :     0.884496
 14 H s       :     0.895623  s :     0.895623
 15 O s       :     3.575640  s :     3.575640
      pz      :     1.539501  p :     4.769278
      px      :     1.365175
      py      :     1.864602
 16 C s       :     2.966966  s :     2.966966
      pz      :     1.093957  p :     3.024338
      px      :     0.979417
      py      :     0.950964
 17 C s       :     2.954435  s :     2.954435
      pz      :     1.034171  p :     3.007463
      px      :     0.984891
      py      :     0.988401
 18 C s       :     2.984027  s :     2.984027
      pz      :     1.081001  p :     3.258637
      px      :     1.068196
      py      :     1.109440
 19 C s       :     2.983954  s :     2.983954
      pz      :     0.834741  p :     3.050177
      px      :     1.111685
      py      :     1.103750
 20 O s       :     3.600373  s :     3.600373
      pz      :     1.425988  p :     4.725229
      px      :     1.727318
      py      :     1.571923
 21 H s       :     0.887324  s :     0.887324
 22 O s       :     3.615286  s :     3.615286
      pz      :     1.837950  p :     4.803960
      px      :     1.608720
      py      :     1.357289
 23 H s       :     0.885068  s :     0.885068
 24 H s       :     0.881688  s :     0.881688
 25 H s       :     0.871770  s :     0.871770
 26 H s       :     0.898296  s :     0.898296
 27 H s       :     0.902547  s :     0.902547
 28 H s       :     0.718748  s :     0.718748


                      *****************************
                      * MAYER POPULATION ANALYSIS *
                      *****************************

  NA   - Mulliken gross atomic population
  ZA   - Total nuclear charge
  QA   - Mulliken gross atomic charge
  VA   - Mayer's total valence
  BVA  - Mayer's bonded valence
  FA   - Mayer's free valence

  ATOM       NA         ZA         QA         VA         BVA        FA
  0 C      5.6935     6.0000     0.3065     3.6523     3.6523    -0.0000
  1 C      6.2584     6.0000    -0.2584     3.7100     3.7100     0.0000
  2 C      6.3061     6.0000    -0.3061     3.7625     3.7625     0.0000
  3 C      6.0222     6.0000    -0.0222     3.6543     3.6543    -0.0000
  4 O      8.4992     8.0000    -0.4992     1.8140     1.8140    -0.0000
  5 H      0.8453     1.0000     0.1547     0.9282     0.9282     0.0000
  6 H      0.8543     1.0000     0.1457     0.9332     0.9332     0.0000
  7 H      0.8413     1.0000     0.1587     0.9395     0.9395    -0.0000
  8 H      0.8512     1.0000     0.1488     0.9365     0.9365     0.0000
  9 H      0.8457     1.0000     0.1543     0.9337     0.9337     0.0000
 10 H      0.8531     1.0000     0.1469     0.9270     0.9270     0.0000
 11 H      0.8465     1.0000     0.1535     0.9288     0.9288    -0.0000
 12 C      6.0174     6.0000    -0.0174     3.6211     3.6211    -0.0000
 13 H      0.8364     1.0000     0.1636     0.9353     0.9353    -0.0000
 14 H      0.8635     1.0000     0.1365     0.9309     0.9309    -0.0000
 15 O      8.5442     8.0000    -0.5442     1.7427     1.7427    -0.0000
 16 C      5.9206     6.0000     0.0794     3.5924     3.5924    -0.0000
 17 C      5.9222     6.0000     0.0778     3.6582     3.6582    -0.0000
 18 C      6.2886     6.0000    -0.2886     3.6889     3.6889    -0.0000
 19 C      6.0255     6.0000    -0.0255     3.6698     3.6698    -0.0000
 20 O      8.5200     8.0000    -0.5200     1.7768     1.7768     0.0000
 21 H      0.8520     1.0000     0.1480     0.9354     0.9354     0.0000
 22 O      8.6061     8.0000    -0.6061     1.7405     1.7405    -0.0000
 23 H      0.8505     1.0000     0.1495     0.9374     0.9374     0.0000
 24 H      0.8521     1.0000     0.1479     0.9400     0.9400    -0.0000
 25 H      0.8290     1.0000     0.1710     0.9442     0.9442     0.0000
 26 H      0.8561     1.0000     0.1439     0.9288     0.9288     0.0000
 27 H      0.8612     1.0000     0.1388     0.9287     0.9287     0.0000
 28 H      0.6381     1.0000     0.3619     0.8341     0.8341    -0.0000

  Mayer bond orders larger than 0.100000
B(  0-C ,  1-C ) :   0.9302 B(  0-C ,  4-O ) :   0.9239 B(  0-C ,  5-H ) :   0.9246 
B(  0-C , 15-O ) :   0.8288 B(  1-C ,  2-C ) :   0.9543 B(  1-C ,  6-H ) :   0.9350 
B(  1-C ,  7-H ) :   0.9361 B(  2-C ,  3-C ) :   0.9511 B(  2-C ,  8-H ) :   0.9447 
B(  2-C ,  9-H ) :   0.9457 B(  3-C ,  4-O ) :   0.8310 B(  3-C , 10-H ) :   0.9311 
B(  3-C , 11-H ) :   0.9403 B( 12-C , 13-H ) :   0.9087 B( 12-C , 14-H ) :   0.9252 
B( 12-C , 15-O ) :   0.8587 B( 12-C , 16-C ) :   0.8867 B( 16-C , 17-C ) :   0.9120 
B( 16-C , 20-O ) :   0.8750 B( 16-C , 21-H ) :   0.9188 B( 17-C , 18-C ) :   0.9245 
B( 17-C , 22-O ) :   0.8884 B( 17-C , 23-H ) :   0.9359 B( 18-C , 19-C ) :   0.9434 
B( 18-C , 24-H ) :   0.9373 B( 18-C , 25-H ) :   0.9203 B( 19-C , 20-O ) :   0.8438 
B( 19-C , 26-H ) :   0.9306 B( 19-C , 27-H ) :   0.9372 B( 22-O , 28-H ) :   0.7962 


-------
TIMINGS
-------

Total SCF time: 0 days 0 hours 2 min 54 sec 

Total time                  ....     174.025 sec
Sum of individual times     ....     143.384 sec  ( 82.4%)

Fock matrix formation       ....     125.269 sec  ( 72.0%)
  XC integration            ....      41.738 sec  ( 33.3% of F)
    Basis function eval.    ....       2.073 sec  (  5.0% of XC)
    Density eval.           ....       1.332 sec  (  3.2% of XC)
    XC-Functional eval.     ....       0.936 sec  (  2.2% of XC)
    XC-Potential eval.      ....       0.792 sec  (  1.9% of XC)
Diagonalization             ....       1.408 sec  (  0.8%)
Density matrix formation    ....       0.007 sec  (  0.0%)
Population analysis         ....       4.937 sec  (  2.8%)
Initial guess               ....       2.137 sec  (  1.2%)
Orbital Transformation      ....       0.000 sec  (  0.0%)
Orbital Orthonormalization  ....       0.005 sec  (  0.0%)
DIIS solution               ....       0.003 sec  (  0.0%)
SOSCF solution              ....       2.043 sec  (  1.2%)
Grid generation             ....       7.582 sec  (  4.4%)

-------------------------   --------------------
FINAL SINGLE POINT ENERGY      -652.859993419914
-------------------------   --------------------

                                *** OPTIMIZATION RUN DONE ***

                            ***************************************
                            *     ORCA property calculations      *
                            ***************************************

                                    ---------------------
                                    Active property flags
                                    ---------------------
   (+) Dipole Moment


------------------------------------------------------------------------------
                       ORCA ELECTRIC PROPERTIES CALCULATION
------------------------------------------------------------------------------

Dipole Moment Calculation                       ... on
Quadrupole Moment Calculation                   ... off
Polarizability Calculation                      ... off
GBWName                                         ... project_8048/ensemble_0_255.gbw
Electron density file                           ... project_8048/ensemble_0_255.scfp
The origin for moment calculation is the CENTER OF MASS  = (-42.631427, 48.160674 88.742397)

-------------
DIPOLE MOMENT
-------------
                                X             Y             Z
Electronic contribution:     -2.49727      -4.08418       1.23357
Nuclear contribution   :      3.31847       5.11257      -1.38419
                        -----------------------------------------
Total Dipole Moment    :      0.82120       1.02840      -0.15062
                        -----------------------------------------
Magnitude (a.u.)       :      1.32463
Magnitude (Debye)      :      3.36695



--------------------
Rotational spectrum 
--------------------
 
Rotational constants in cm-1:     0.063389     0.014116     0.014039 
Rotational constants in MHz :  1900.353457   423.183031   420.890025 

 Dipole components along the rotational axes: 
x,y,z [a.u.] :     1.262258     0.054568    -0.397974 
x,y,z [Debye]:     3.208405     0.138701    -1.011570 

 

Timings for individual modules:

Sum of individual times         ...     2404.173 sec (=  40.070 min)
GTO integral calculation        ...       43.166 sec (=   0.719 min)   1.8 %
SCF iterations                  ...     1986.572 sec (=  33.110 min)  82.6 %
SCF Gradient evaluation         ...      343.603 sec (=   5.727 min)  14.3 %
Geometry relaxation             ...       30.831 sec (=   0.514 min)   1.3 %
                             ****ORCA TERMINATED NORMALLY****
TOTAL RUN TIME: 0 days 0 hours 41 minutes 14 seconds 560 msec
