
                                 *****************
                                 * O   R   C   A *
                                 *****************

           --- An Ab Initio, DFT and Semiempirical electronic structure package ---

                  #######################################################
                  #                        -***-                        #
                  #          Department of theory and spectroscopy      #
                  #               Directorship: Frank Neese             #
                  #        Max Planck Institute fuer Kohlenforschung    #
                  #                Kaiser Wilhelm Platz 1               #
                  #                 D-45470 Muelheim/Ruhr               #
                  #                      Germany                        #
                  #                                                     #
                  #                  All rights reserved                #
                  #                        -***-                        #
                  #######################################################


                         Program Version 4.2.0 -  RELEASE  -


 With contributions from (in alphabetic order):
   Daniel Aravena         : Magnetic Suceptibility
   Michael Atanasov       : Ab Initio Ligand Field Theory (pilot matlab implementation)
   Alexander A. Auer      : GIAO ZORA, VPT2
   Ute Becker             : Parallelization
   Giovanni Bistoni       : ED, misc. LED, open-shell LED, HFLED
   Martin Brehm           : Molecular dynamics
   Dmytro Bykov           : SCF Hessian
   Vijay G. Chilkuri      : MRCI spin determinant printing, contributions to CSF-ICE
   Dipayan Datta          : RHF DLPNO-CCSD density
   Achintya Kumar Dutta   : EOM-CC, STEOM-CC
   Dmitry Ganyushin       : Spin-Orbit,Spin-Spin,Magnetic field MRCI
   Miquel Garcia          : C-PCM Hessian, Gaussian charge scheme
   Yang Guo               : DLPNO-NEVPT2, CIM, IAO-localization
   Andreas Hansen         : Spin unrestricted coupled pair/coupled cluster methods
   Benjamin Helmich-Paris : CASSCF linear response (MC-RPA)
   Lee Huntington         : MR-EOM, pCC
   Robert Izsak           : Overlap fitted RIJCOSX, COSX-SCS-MP3, EOM
   Christian Kollmar      : KDIIS, OOCD, Brueckner-CCSD(T), CCSD density
   Simone Kossmann        : Meta GGA functionals, TD-DFT gradient, OOMP2, MP2 Hessian
   Martin Krupicka        : AUTO-CI
   Lucas Lang             : DCDCAS
   Dagmar Lenk            : GEPOL surface, SMD
   Dimitrios Liakos       : Extrapolation schemes; Compound Job, initial MDCI parallelization
   Dimitrios Manganas     : Further ROCIS development; embedding schemes
   Dimitrios Pantazis     : SARC Basis sets
   Taras Petrenko         : DFT Hessian,TD-DFT gradient, ASA, ECA, R-Raman, ABS, FL, XAS/XES, NRVS
   Peter Pinski           : DLPNO-MP2, DLPNO-MP2 Gradient
   Christoph Reimann      : Effective Core Potentials
   Marius Retegan         : Local ZFS, SOC
   Christoph Riplinger    : Optimizer, TS searches, QM/MM, DLPNO-CCSD(T), (RO)-DLPNO pert. Triples
   Tobias Risthaus        : Range-separated hybrids, TD-DFT gradient, RPA, STAB
   Michael Roemelt        : Original ROCIS implementation
   Masaaki Saitow         : Open-shell DLPNO-CCSD energy and density
   Barbara Sandhoefer     : DKH picture change effects
   Avijit Sen             : IP-ROCIS
   Kantharuban Sivalingam : CASSCF convergence, NEVPT2, FIC-MRCI
   Bernardo de Souza      : ESD, SOC TD-DFT
   Georgi Stoychev        : AutoAux, RI-MP2 NMR
   Willem Van den Heuvel  : Paramagnetic NMR
   Boris Wezisla          : Elementary symmetry handling
   Frank Wennmohs         : Technical directorship


 We gratefully acknowledge several colleagues who have allowed us to
 interface, adapt or use parts of their codes:
   Stefan Grimme, W. Hujo, H. Kruse,             : VdW corrections, initial TS optimization,
                  C. Bannwarth                     DFT functionals, gCP, sTDA/sTD-DF
   Ed Valeev, F. Pavosevic, A. Kumar             : LibInt (2-el integral package), F12 methods
   Garnet Chan, S. Sharma, J. Yang, R. Olivares  : DMRG
   Ulf Ekstrom                                   : XCFun DFT Library
   Mihaly Kallay                                 : mrcc  (arbitrary order and MRCC methods)
   Andreas Klamt, Michael Diedenhofen            : otool_cosmo (COSMO solvation model)
   Jiri Pittner, Ondrej Demel                    : Mk-CCSD
   Frank Weinhold                                : gennbo (NPA and NBO analysis)
   Christopher J. Cramer and Donald G. Truhlar   : smd solvation model
   Lars Goerigk                                  : TD-DFT with DH, B97 family of functionals
   V. Asgeirsson, H. Jonsson                     : NEB implementation
   FAccTs GmbH                                   : IRC, NEB, NEB-TS, Multilevel, MM, QM/MM, CI optimization
   S Lehtola, MJT Oliveira, MAL Marques          : LibXC Library


 Your calculation uses the libint2 library for the computation of 2-el integrals
 For citations please refer to: http://libint.valeyev.net

 Your ORCA version has been built with support for libXC version: 4.2.3
 For citations please refer to: https://tddft.org/programs/libxc/

 This ORCA versions uses:
   CBLAS   interface :  Fast vector & matrix operations
   LAPACKE interface :  Fast linear algebra routines
   SCALAPACK package :  Parallel linear algebra routines


----- Orbital basis set information -----
Your calculation utilizes the basis: 6-31G
   H-He, Li-Ne : W. J. Hehre, R. Ditchfield and J.A. Pople, J. Chem. Phys. 56, 2257 (1972).
                 Note: He and Ne are unpublished basis sets taken from the Gaussian program.
                 Note: Li and B from J. D. Dill and J. A. Pople, J. Chem. Phys. 62, 2921 (1975).
   Na - Ar     : M. M. Francl, W. J. Pietro, W. J. Hehre, J. S. Binkley, M. S. Gordon, 
                 D. J. DeFrees and J. A. Pople, J. Chem. Phys. 77, 3654 (1982).
   K - Zn      : V. A. Rassolov, J. A. Pople, M. A. Ratner, and T. L. Windus, J. Chem. Phys. 109, 1223 (1998).

================================================================================
                                        WARNINGS
                       Please study these warnings very carefully!
================================================================================


WARNING: Geometry Optimization
  ===> : Switching off AutoStart
         For restart on a previous wavefunction, please use MOREAD

INFO   : the flag for use of LIBINT has been found!

================================================================================
                                       INPUT FILE
================================================================================
NAME = project_8053/ensemble_180_240.inp
|  1> # Test redundant internal optimization
|  2> #
|  3> ! RKS B3LYP  Opt TightSCF SmallPrint
|  4> 
|  5> %basis
|  6>         Basis "6-31G"
|  7> end
|  8> 
|  9> %geom
| 10> Constraints
| 11> { D 4  0  15  12  180.0   C } # D for Dihedral angle
| 12> { D 0  15  12  16  240.0   C } # D for Dihedral angle
| 13> { D 0  4  3  2   C } # D for Dihedral angle
| 14> { D 4  3  2  1   C } # D for Dihedral angle
| 15> { D 3  2  1  0   C } # D for Dihedral angle
| 16> { D 2  1  0  4   C } # D for Dihedral angle
| 17> { D 1  0  4  3   C } # D for Dihedral angle
| 18> { D 16  20  19  18   C } # D for Dihedral angle
| 19> { D 20  19  18  17   C } # D for Dihedral angle
| 20> { D 19  18  17  16   C } # D for Dihedral angle
| 21> { D 18  17  16  20   C } # D for Dihedral angle
| 22> { D 17  16  20  19   C } # D for Dihedral angle
| 23> { D 15  12  16  20   C } # D for Dihedral angle
| 24> end
| 25> end
| 26> 
| 27> 
| 28> #%pal 
| 29> #nprocs 8
| 30> #end
| 31> 
| 32> * xyz 0 1
| 33> C  -21.048   26.222   46.251
| 34> C  -20.361   27.558   45.944
| 35> C  -20.329   28.222   47.341
| 36> C  -20.110   27.022   48.296
| 37> O  -20.473   25.807   47.535
| 38> H  -20.833   25.428   45.533
| 39> H  -19.344   27.382   45.576
| 40> H  -20.898   28.157   45.201
| 41> H  -19.543   28.978   47.434
| 42> H  -21.289   28.710   47.548
| 43> H  -20.733   27.082   49.195
| 44> H  -19.064   26.913   48.597
| 45> C  -23.309   26.834   45.072
| 46> H  -22.571   26.938   44.267
| 47> H  -24.044   26.078   44.767
| 48> O  -22.586   26.394   46.375
| 49> C  -24.057   28.186   45.228
| 50> C  -24.852   28.531   43.964
| 51> C  -26.107   27.641   44.129
| 52> C  -26.344   27.649   45.660
| 53> O  -25.075   28.091   46.279
| 54> H  -23.347   28.955   45.539
| 55> H  -25.127   29.592   43.969
| 56> O  -24.072   28.235   42.653
| 57> H  -26.971   28.017   43.571
| 58> H  -25.897   26.625   43.776
| 59> H  -26.607   26.659   46.049
| 60> H  -27.115   28.364   45.960
| 61> H  -23.787   27.177   42.624
| 62> *
| 63> 
| 64>                          ****END OF INPUT****
================================================================================

                       *****************************
                       * Geometry Optimization Run *
                       *****************************

Geometry optimization settings:
Update method            Update   .... BFGS
Choice of coordinates    CoordSys .... Z-matrix Internals
Initial Hessian          InHess   .... Almoef's Model

Convergence Tolerances:
Energy Change            TolE     ....  5.0000e-06 Eh
Max. Gradient            TolMAXG  ....  3.0000e-04 Eh/bohr
RMS Gradient             TolRMSG  ....  1.0000e-04 Eh/bohr
Max. Displacement        TolMAXD  ....  4.0000e-03 bohr
RMS Displacement         TolRMSD  ....  2.0000e-03 bohr
Strict Convergence                ....  False
------------------------------------------------------------------------------
                        ORCA OPTIMIZATION COORDINATE SETUP
------------------------------------------------------------------------------

The optimization will be done in new redundant internal coordinates
Making redundant internal coordinates   ...  (new redundants) done
Evaluating the initial hessian          ...  (Almloef) done
Evaluating the coordinates              ...  done
Calculating the B-matrix                .... done
Calculating the G-matrix                .... done
Diagonalizing the G-matrix              .... done
Imposing constraints:
 Iter   0:  RMS(Cart)=    0.0000903198 RMS(Int)=    0.0000370225
 Iter   1:  RMS(Cart)=    0.0000452553 RMS(Int)=    0.0000201325
 Iter   2:  RMS(Cart)=    0.0000234088 RMS(Int)=    0.0000118690
 Iter   3:  RMS(Cart)=    0.0000126541 RMS(Int)=    0.0000078646
 Iter   4:  RMS(Cart)=    0.0000072568 RMS(Int)=    0.0000059529
 Iter   5:  RMS(Cart)=    0.0000044690 RMS(Int)=    0.0000050278
 Iter   6:  RMS(Cart)=    0.0000029654 RMS(Int)=    0.0000045459
 Iter   7:  RMS(Cart)=    0.0000021102 RMS(Int)=    0.0000042606
 Iter   8:  RMS(Cart)=    0.0000015998 RMS(Int)=    0.0000040650
 Iter   9:  RMS(Cart)=    0.0000012851 RMS(Int)=    0.0000039126
 Iter  10:  RMS(Cart)=    0.0000010873 RMS(Int)=    0.0000037824
 Iter  11:  RMS(Cart)=    0.0000009608 RMS(Int)=    0.0000036648
 Iter  12:  RMS(Cart)=    0.0000008772 RMS(Int)=    0.0000035551
 Iter  13:  RMS(Cart)=    0.0000008192 RMS(Int)=    0.0000034509
 Iter  14:  RMS(Cart)=    0.0000007762 RMS(Int)=    0.0000033511
 Iter  15:  RMS(Cart)=    0.0000007420 RMS(Int)=    0.0000032549
 Iter  16:  RMS(Cart)=    0.0000007132 RMS(Int)=    0.0000031620
 Iter  17:  RMS(Cart)=    0.0000006878 RMS(Int)=    0.0000030721
 Iter  18:  RMS(Cart)=    0.0000006647 RMS(Int)=    0.0000029852
 Iter  19:  RMS(Cart)=    0.0000006431 RMS(Int)=    0.0000029010
 Iter  20:  RMS(Cart)=    0.0000006227 RMS(Int)=    0.0000028194
 Iter  21:  RMS(Cart)=    0.0000006033 RMS(Int)=    0.0000027404
 Iter  22:  RMS(Cart)=    0.0000005847 RMS(Int)=    0.0000026638
 Iter  23:  RMS(Cart)=    0.0000005668 RMS(Int)=    0.0000025897
 Iter  24:  RMS(Cart)=    0.0000005496 RMS(Int)=    0.0000025178
 Iter  25:  RMS(Cart)=    0.0000005330 RMS(Int)=    0.0000024482
 Iter  26:  RMS(Cart)=    0.0000005170 RMS(Int)=    0.0000023807
 Iter  27:  RMS(Cart)=    0.0000005015 RMS(Int)=    0.0000023152
 Iter  28:  RMS(Cart)=    0.0000004865 RMS(Int)=    0.0000022518
 Iter  29:  RMS(Cart)=    0.0000004719 RMS(Int)=    0.0000021903
 Iter  30:  RMS(Cart)=    0.0000004579 RMS(Int)=    0.0000021307
 Iter  31:  RMS(Cart)=    0.0000004443 RMS(Int)=    0.0000020730
 Iter  32:  RMS(Cart)=    0.0000004311 RMS(Int)=    0.0000020169
 Iter  33:  RMS(Cart)=    0.0000004184 RMS(Int)=    0.0000019626
 Iter  34:  RMS(Cart)=    0.0000004060 RMS(Int)=    0.0000019099
 Iter  35:  RMS(Cart)=    0.0000003941 RMS(Int)=    0.0000018588
 Iter  36:  RMS(Cart)=    0.0000003825 RMS(Int)=    0.0000018093
 Iter  37:  RMS(Cart)=    0.0000003713 RMS(Int)=    0.0000017612
 Iter  38:  RMS(Cart)=    0.0000003604 RMS(Int)=    0.0000017146
 Iter  39:  RMS(Cart)=    0.0000003499 RMS(Int)=    0.0000016694
 Iter  40:  RMS(Cart)=    0.0000003397 RMS(Int)=    0.0000016255
 Iter  41:  RMS(Cart)=    0.0000003298 RMS(Int)=    0.0000015830
 Iter  42:  RMS(Cart)=    0.0000003202 RMS(Int)=    0.0000015417
 Iter  43:  RMS(Cart)=    0.0000003109 RMS(Int)=    0.0000015016
 Iter  44:  RMS(Cart)=    0.0000003019 RMS(Int)=    0.0000014627
 Iter  45:  RMS(Cart)=    0.0000002932 RMS(Int)=    0.0000014250
 Iter  46:  RMS(Cart)=    0.0000002847 RMS(Int)=    0.0000013884
 Iter  47:  RMS(Cart)=    0.0000002765 RMS(Int)=    0.0000013528
 Iter  48:  RMS(Cart)=    0.0000002686 RMS(Int)=    0.0000013183
 Iter  49:  RMS(Cart)=    0.0000002609 RMS(Int)=    0.0000012849
 Iter  50:  RMS(Cart)=    0.0000002534 RMS(Int)=    0.0000012523
 Iter  51:  RMS(Cart)=    0.0000002462 RMS(Int)=    0.0000012208
 Iter  52:  RMS(Cart)=    0.0000002392 RMS(Int)=    0.0000011902
 Iter  53:  RMS(Cart)=    0.0000002324 RMS(Int)=    0.0000011604
 Iter  54:  RMS(Cart)=    0.0000002258 RMS(Int)=    0.0000011315
 Iter  55:  RMS(Cart)=    0.0000002194 RMS(Int)=    0.0000011035
 Iter  56:  RMS(Cart)=    0.0000002132 RMS(Int)=    0.0000010762
 Iter  57:  RMS(Cart)=    0.0000002072 RMS(Int)=    0.0000010498
 Iter  58:  RMS(Cart)=    0.0000002013 RMS(Int)=    0.0000010241
 Iter  59:  RMS(Cart)=    0.0000001957 RMS(Int)=    0.0000009992
 Iter  60:  RMS(Cart)=    0.0000001902 RMS(Int)=    0.0000009749
 Iter  61:  RMS(Cart)=    0.0000001849 RMS(Int)=    0.0000009514
 Iter  62:  RMS(Cart)=    0.0000001797 RMS(Int)=    0.0000009285
 Iter  63:  RMS(Cart)=    0.0000001747 RMS(Int)=    0.0000009063
 Iter  64:  RMS(Cart)=    0.0000001699 RMS(Int)=    0.0000008847
 Iter  65:  RMS(Cart)=    0.0000001651 RMS(Int)=    0.0000008637
 Iter  66:  RMS(Cart)=    0.0000001606 RMS(Int)=    0.0000008433
 Iter  67:  RMS(Cart)=    0.0000001561 RMS(Int)=    0.0000008235
 Iter  68:  RMS(Cart)=    0.0000001518 RMS(Int)=    0.0000008042
 Iter  69:  RMS(Cart)=    0.0000001477 RMS(Int)=    0.0000007855
 Iter  70:  RMS(Cart)=    0.0000001436 RMS(Int)=    0.0000007673
 Iter  71:  RMS(Cart)=    0.0000001397 RMS(Int)=    0.0000007497
 Iter  72:  RMS(Cart)=    0.0000001359 RMS(Int)=    0.0000007325
 Iter  73:  RMS(Cart)=    0.0000001321 RMS(Int)=    0.0000007158
 Iter  74:  RMS(Cart)=    0.0000001286 RMS(Int)=    0.0000006995
 Iter  75:  RMS(Cart)=    0.0000001251 RMS(Int)=    0.0000006837
 Iter  76:  RMS(Cart)=    0.0000001217 RMS(Int)=    0.0000006684
 Iter  77:  RMS(Cart)=    0.0000001184 RMS(Int)=    0.0000006534
 Iter  78:  RMS(Cart)=    0.0000001152 RMS(Int)=    0.0000006389
 Iter  79:  RMS(Cart)=    0.0000001121 RMS(Int)=    0.0000006248
 Iter  80:  RMS(Cart)=    0.0000001091 RMS(Int)=    0.0000006110
 Iter  81:  RMS(Cart)=    0.0000001062 RMS(Int)=    0.0000005976
 Iter  82:  RMS(Cart)=    0.0000001033 RMS(Int)=    0.0000005846
 Iter  83:  RMS(Cart)=    0.0000001006 RMS(Int)=    0.0000005720
 Iter  84:  RMS(Cart)=    0.0000000979 RMS(Int)=    0.0000005597
 Iter  85:  RMS(Cart)=    0.0000000953 RMS(Int)=    0.0000005477
 Iter  86:  RMS(Cart)=    0.0000000928 RMS(Int)=    0.0000005360
 Iter  87:  RMS(Cart)=    0.0000000903 RMS(Int)=    0.0000005247
 Iter  88:  RMS(Cart)=    0.0000000880 RMS(Int)=    0.0000005136
 Iter  89:  RMS(Cart)=    0.0000000857 RMS(Int)=    0.0000005029
 Iter  90:  RMS(Cart)=    0.0000000834 RMS(Int)=    0.0000004924
 Iter  91:  RMS(Cart)=    0.0000000812 RMS(Int)=    0.0000004822
 Iter  92:  RMS(Cart)=    0.0000000791 RMS(Int)=    0.0000004723
 Iter  93:  RMS(Cart)=    0.0000000771 RMS(Int)=    0.0000004627
 Iter  94:  RMS(Cart)=    0.0000000751 RMS(Int)=    0.0000004533
 Iter  95:  RMS(Cart)=    0.0000000731 RMS(Int)=    0.0000004441
 Iter  96:  RMS(Cart)=    0.0000000713 RMS(Int)=    0.0000004352
 Iter  97:  RMS(Cart)=    0.0000000694 RMS(Int)=    0.0000004265
 Iter  98:  RMS(Cart)=    0.0000000676 RMS(Int)=    0.0000004180
 Iter  99:  RMS(Cart)=    0.0000000659 RMS(Int)=    0.0000004098
 RMS(Cart) too big - taking linear step, building new B-matrix and trying again
Imposing constraints:
 Iter   0:  RMS(Cart)=    0.0000452537 RMS(Int)=    0.0000201327
 Iter   1:  RMS(Cart)=    0.0000234080 RMS(Int)=    0.0000118691
 Iter   2:  RMS(Cart)=    0.0000126537 RMS(Int)=    0.0000078648
 Iter   3:  RMS(Cart)=    0.0000072566 RMS(Int)=    0.0000059530
 Iter   4:  RMS(Cart)=    0.0000044689 RMS(Int)=    0.0000050279
 Iter   5:  RMS(Cart)=    0.0000029653 RMS(Int)=    0.0000045460
 Iter   6:  RMS(Cart)=    0.0000021102 RMS(Int)=    0.0000042607
 Iter   7:  RMS(Cart)=    0.0000015997 RMS(Int)=    0.0000040651
 Iter   8:  RMS(Cart)=    0.0000012851 RMS(Int)=    0.0000039126
 Iter   9:  RMS(Cart)=    0.0000010873 RMS(Int)=    0.0000037825
 Iter  10:  RMS(Cart)=    0.0000009608 RMS(Int)=    0.0000036649
 Iter  11:  RMS(Cart)=    0.0000008772 RMS(Int)=    0.0000035552
 Iter  12:  RMS(Cart)=    0.0000008192 RMS(Int)=    0.0000034510
 Iter  13:  RMS(Cart)=    0.0000007762 RMS(Int)=    0.0000033511
 Iter  14:  RMS(Cart)=    0.0000007420 RMS(Int)=    0.0000032549
 Iter  15:  RMS(Cart)=    0.0000007132 RMS(Int)=    0.0000031620
 Iter  16:  RMS(Cart)=    0.0000006878 RMS(Int)=    0.0000030722
 Iter  17:  RMS(Cart)=    0.0000006647 RMS(Int)=    0.0000029852
 Iter  18:  RMS(Cart)=    0.0000006431 RMS(Int)=    0.0000029010
 Iter  19:  RMS(Cart)=    0.0000006227 RMS(Int)=    0.0000028195
 Iter  20:  RMS(Cart)=    0.0000006033 RMS(Int)=    0.0000027405
 Iter  21:  RMS(Cart)=    0.0000005847 RMS(Int)=    0.0000026639
 Iter  22:  RMS(Cart)=    0.0000005669 RMS(Int)=    0.0000025898
 Iter  23:  RMS(Cart)=    0.0000005496 RMS(Int)=    0.0000025179
 Iter  24:  RMS(Cart)=    0.0000005330 RMS(Int)=    0.0000024482
 Iter  25:  RMS(Cart)=    0.0000005170 RMS(Int)=    0.0000023807
 Iter  26:  RMS(Cart)=    0.0000005015 RMS(Int)=    0.0000023153
 Iter  27:  RMS(Cart)=    0.0000004865 RMS(Int)=    0.0000022519
 Iter  28:  RMS(Cart)=    0.0000004719 RMS(Int)=    0.0000021904
 Iter  29:  RMS(Cart)=    0.0000004579 RMS(Int)=    0.0000021308
 Iter  30:  RMS(Cart)=    0.0000004443 RMS(Int)=    0.0000020730
 Iter  31:  RMS(Cart)=    0.0000004311 RMS(Int)=    0.0000020170
 Iter  32:  RMS(Cart)=    0.0000004184 RMS(Int)=    0.0000019627
 Iter  33:  RMS(Cart)=    0.0000004060 RMS(Int)=    0.0000019100
 Iter  34:  RMS(Cart)=    0.0000003941 RMS(Int)=    0.0000018589
 Iter  35:  RMS(Cart)=    0.0000003825 RMS(Int)=    0.0000018093
 Iter  36:  RMS(Cart)=    0.0000003713 RMS(Int)=    0.0000017613
 Iter  37:  RMS(Cart)=    0.0000003604 RMS(Int)=    0.0000017147
 Iter  38:  RMS(Cart)=    0.0000003499 RMS(Int)=    0.0000016694
 Iter  39:  RMS(Cart)=    0.0000003397 RMS(Int)=    0.0000016256
 Iter  40:  RMS(Cart)=    0.0000003298 RMS(Int)=    0.0000015830
 Iter  41:  RMS(Cart)=    0.0000003202 RMS(Int)=    0.0000015417
 Iter  42:  RMS(Cart)=    0.0000003109 RMS(Int)=    0.0000015017
 Iter  43:  RMS(Cart)=    0.0000003019 RMS(Int)=    0.0000014628
 Iter  44:  RMS(Cart)=    0.0000002932 RMS(Int)=    0.0000014250
 Iter  45:  RMS(Cart)=    0.0000002847 RMS(Int)=    0.0000013884
 Iter  46:  RMS(Cart)=    0.0000002765 RMS(Int)=    0.0000013529
 Iter  47:  RMS(Cart)=    0.0000002686 RMS(Int)=    0.0000013184
 Iter  48:  RMS(Cart)=    0.0000002609 RMS(Int)=    0.0000012849
 Iter  49:  RMS(Cart)=    0.0000002534 RMS(Int)=    0.0000012524
 Iter  50:  RMS(Cart)=    0.0000002462 RMS(Int)=    0.0000012208
 Iter  51:  RMS(Cart)=    0.0000002392 RMS(Int)=    0.0000011902
 Iter  52:  RMS(Cart)=    0.0000002324 RMS(Int)=    0.0000011605
 Iter  53:  RMS(Cart)=    0.0000002258 RMS(Int)=    0.0000011316
 Iter  54:  RMS(Cart)=    0.0000002194 RMS(Int)=    0.0000011035
 Iter  55:  RMS(Cart)=    0.0000002132 RMS(Int)=    0.0000010763
 Iter  56:  RMS(Cart)=    0.0000002072 RMS(Int)=    0.0000010498
 Iter  57:  RMS(Cart)=    0.0000002013 RMS(Int)=    0.0000010241
 Iter  58:  RMS(Cart)=    0.0000001957 RMS(Int)=    0.0000009992
CONVERGED
Small eigenvalue found = 8.718e-03
Small eigenvalue found = 1.130e-02
Small eigenvalue found = 1.571e-02
The first mode is                       ....   91
The number of degrees of freedom        ....   81
Storing new coordinates                 .... done

    -----------------------------------------------------------------
                    Redundant Internal Coordinates


    -----------------------------------------------------------------
         Definition                    Initial Value    Approx d2E/dq
    -----------------------------------------------------------------
      1. B(C   1,C   0)                  1.5333         0.369027   
      2. B(C   2,C   1)                  1.5471         0.350825   
      3. B(C   3,C   2)                  1.5492         0.348147   
      4. B(O   4,C   0)                  1.4668         0.422031   
      5. B(O   4,C   3)                  1.4789         0.403699   
      6. B(H   5,C   0)                  1.0919         0.357632   
      7. B(H   6,C   1)                  1.0958         0.352561   
      8. B(H   7,C   1)                  1.0951         0.353431   
      9. B(H   8,C   2)                  1.0945         0.354166   
     10. B(H   9,C   2)                  1.0966         0.351438   
     11. B(H  10,C   3)                  1.0954         0.353010   
     12. B(H  11,C   3)                  1.0939         0.354989   
     13. B(H  13,C  12)                  1.0970         0.350913   
     14. B(H  14,C  12)                  1.0976         0.350150   
     15. B(O  15,C   0)                  1.5525         0.307993   
     16. B(O  15,C  12)                  1.5537         0.306636   
     17. B(C  16,C  12)                  1.5530         0.343333   
     18. B(C  17,C  16)                  1.5326         0.370075   
     19. B(C  18,C  17)                  1.5474         0.350483   
     20. B(C  19,C  18)                  1.5493         0.348061   
     21. B(O  20,C  16)                  1.4663         0.422854   
     22. B(O  20,C  19)                  1.4795         0.402812   
     23. B(H  21,C  16)                  1.0919         0.357634   
     24. B(H  22,C  17)                  1.0961         0.352158   
     25. B(O  23,C  17)                  1.5539         0.306419   
     26. B(H  24,C  18)                  1.0951         0.353421   
     27. B(H  25,C  18)                  1.0959         0.352398   
     28. B(H  26,C  19)                  1.0957         0.352619   
     29. B(H  27,C  19)                  1.0935         0.355545   
     30. B(H  28,O  23)                  1.0961         0.315378   
     31. A(O   4,C   0,H   5)          107.0169         0.328541   
     32. A(C   1,C   0,O  15)          111.3059         0.348740   
     33. A(C   1,C   0,O   4)          104.2508         0.367935   
     34. A(O   4,C   0,O  15)          110.4723         0.354548   
     35. A(C   1,C   0,H   5)          114.4405         0.323302   
     36. A(H   5,C   0,O  15)          109.1543         0.312058   
     37. A(C   0,C   1,C   2)          101.6783         0.358729   
     38. A(C   2,C   1,H   7)          112.8333         0.320016   
     39. A(C   2,C   1,H   6)          110.6702         0.319888   
     40. A(C   0,C   1,H   6)          110.0681         0.322546   
     41. A(H   6,C   1,H   7)          108.3679         0.289027   
     42. A(C   0,C   1,H   7)          113.1246         0.322677   
     43. A(C   1,C   2,H   8)          112.8313         0.320125   
     44. A(C   1,C   2,C   3)          103.1285         0.355196   
     45. A(C   1,C   2,H   9)          110.0795         0.319721   
     46. A(C   3,C   2,H   9)          110.6147         0.319321   
     47. A(C   3,C   2,H   8)          112.4033         0.319725   
     48. A(H   8,C   2,H   9)          107.7731         0.288977   
     49. A(O   4,C   3,H  10)          109.1301         0.325449   
     50. A(C   2,C   3,H  10)          112.5254         0.319554   
     51. A(C   2,C   3,O   4)          106.5268         0.361529   
     52. A(O   4,C   3,H  11)          107.1239         0.325748   
     53. A(H  10,C   3,H  11)          108.8727         0.289284   
     54. A(C   2,C   3,H  11)          112.4569         0.319846   
     55. A(C   0,O   4,C   3)          108.3128         0.371320   
     56. A(H  14,C  12,C  16)          107.7547         0.318406   
     57. A(H  13,C  12,H  14)          108.1717         0.288394   
     58. A(H  13,C  12,O  15)          109.2184         0.310880   
     59. A(H  14,C  12,O  15)          110.4623         0.310771   
     60. A(O  15,C  12,C  16)          112.7320         0.344277   
     61. A(H  13,C  12,C  16)          108.3768         0.318519   
     62. A(C   0,O  15,C  12)          115.1734         0.336028   
     63. A(C  12,C  16,C  17)          111.2832         0.357587   
     64. A(C  12,C  16,O  20)          110.4874         0.363537   
     65. A(C  17,C  16,O  20)          104.2178         0.368237   
     66. A(C  12,C  16,H  21)          109.1817         0.319506   
     67. A(C  17,C  16,H  21)          114.4365         0.323453   
     68. A(O  20,C  16,H  21)          107.0338         0.328647   
     69. A(C  16,C  17,C  18)          101.7302         0.358842   
     70. A(C  16,C  17,H  22)          110.1389         0.322636   
     71. A(C  18,C  17,H  22)          110.6581         0.319777   
     72. A(C  16,C  17,O  23)          113.1138         0.348606   
     73. A(C  18,C  17,O  23)          112.7995         0.345429   
     74. A(H  22,C  17,O  23)          108.3110         0.311023   
     75. A(C  17,C  18,C  19)          103.0896         0.355123   
     76. A(C  17,C  18,H  24)          112.8352         0.319964   
     77. A(C  19,C  18,H  24)          112.4002         0.319602   
     78. A(C  17,C  18,H  25)          110.0888         0.319813   
     79. A(C  19,C  18,H  25)          110.6354         0.319451   
     80. A(H  24,C  18,H  25)          107.7808         0.289005   
     81. A(C  18,C  19,O  20)          106.4865         0.361378   
     82. A(C  18,C  19,H  26)          112.5127         0.319483   
     83. A(O  20,C  19,H  26)          109.1031         0.325272   
     84. A(C  18,C  19,H  27)          112.4802         0.319915   
     85. A(O  20,C  19,H  27)          107.1363         0.325714   
     86. A(H  26,C  19,H  27)          108.9143         0.289305   
     87. A(C  16,O  20,C  19)          108.3589         0.371304   
     88. A(C  17,O  23,H  28)          109.6758         0.303025   
     89. D(H   7,C   1,C   0,H   5)     82.1534         0.010890   
     90. D(C   2,C   1,C   0,O  15)     79.0886         0.010890   
     91. D(H   7,C   1,C   0,O  15)    -42.1860         0.010890   
     92. D(H   6,C   1,C   0,O   4)     77.3246         0.010890   
     93. D(H   6,C   1,C   0,O  15)   -163.5721         0.010890   
     94. D(H   6,C   1,C   0,H   5)    -39.2327         0.010890   
     95. D(H   7,C   1,C   0,O   4)   -161.2893         0.010890   
     96. D(C   2,C   1,C   0,O   4)    -40.0146         0.010890 C 
     97. D(C   2,C   1,C   0,H   5)   -156.5720         0.010890   
     98. D(H   9,C   2,C   1,H   6)    160.0777         0.009912   
     99. D(H   8,C   2,C   1,C   0)    156.5478         0.009912   
    100. D(H   8,C   2,C   1,H   6)     39.6450         0.009912   
    101. D(C   3,C   2,C   1,C   0)     35.0268         0.009912 C 
    102. D(H   8,C   2,C   1,H   7)    -81.9750         0.009912   
    103. D(H   9,C   2,C   1,C   0)    -83.0195         0.009912   
    104. D(C   3,C   2,C   1,H   6)    -81.8760         0.009912   
    105. D(H   9,C   2,C   1,H   7)     38.4577         0.009912   
    106. D(C   3,C   2,C   1,H   7)    156.5040         0.009912   
    107. D(H  11,C   3,C   2,H   9)   -143.4627         0.009774   
    108. D(O   4,C   3,C   2,H   8)   -140.0068         0.009774   
    109. D(O   4,C   3,C   2,H   9)     99.4741         0.009774   
    110. D(H  10,C   3,C   2,C   1)   -137.7432         0.009774   
    111. D(H  10,C   3,C   2,H   8)    100.4467         0.009774   
    112. D(H  10,C   3,C   2,H   9)    -20.0724         0.009774   
    113. D(H  11,C   3,C   2,C   1)     98.8666         0.009774   
    114. D(O   4,C   3,C   2,C   1)    -18.1967         0.009774 C 
    115. D(H  11,C   3,C   2,H   8)    -22.9435         0.009774   
    116. D(C   3,O   4,C   0,C   1)     29.5920         0.014035 C 
    117. D(C   3,O   4,C   0,H   5)    151.2039         0.014035   
    118. D(C   3,O   4,C   0,O  15)    -90.0762         0.014035   
    119. D(C   0,O   4,C   3,C   2)     -6.8730         0.012866 C 
    120. D(C   0,O   4,C   3,H  10)    114.8547         0.012866   
    121. D(C   0,O   4,C   3,H  11)   -127.4270         0.012866   
    122. D(C   0,O  15,C  12,C  16)   -120.0000         0.007733 C 
    123. D(C  12,O  15,C   0,O   4)    180.0000         0.007793 C 
    124. D(C  12,O  15,C   0,H   5)    -62.5893         0.007793   
    125. D(C   0,O  15,C  12,H  14)    119.3880         0.007733   
    126. D(C   0,O  15,C  12,H  13)      0.5334         0.007733   
    127. D(C  12,O  15,C   0,C   1)     64.6821         0.007793   
    128. D(C  17,C  16,C  12,H  13)     63.6854         0.009528   
    129. D(H  21,C  16,C  12,H  14)    179.5796         0.009528   
    130. D(C  17,C  16,C  12,O  15)   -175.3001         0.009528   
    131. D(O  20,C  16,C  12,H  13)    178.9584         0.009528   
    132. D(O  20,C  16,C  12,H  14)     62.1229         0.009528   
    133. D(O  20,C  16,C  12,O  15)    -60.0272         0.009528 C 
    134. D(C  17,C  16,C  12,H  14)    -53.1500         0.009528   
    135. D(H  21,C  16,C  12,H  13)    -63.5850         0.009528   
    136. D(H  21,C  16,C  12,O  15)     57.4295         0.009528   
    137. D(C  18,C  17,C  16,C  12)     79.0581         0.010948   
    138. D(C  18,C  17,C  16,O  20)    -40.0322         0.010948 C 
    139. D(C  18,C  17,C  16,H  21)   -156.5871         0.010948   
    140. D(H  22,C  17,C  16,C  12)   -163.5596         0.010948   
    141. D(H  22,C  17,C  16,O  20)     77.3501         0.010948   
    142. D(H  22,C  17,C  16,H  21)    -39.2048         0.010948   
    143. D(O  23,C  17,C  16,C  12)    -42.2030         0.010948   
    144. D(O  23,C  17,C  16,O  20)   -161.2933         0.010948   
    145. D(O  23,C  17,C  16,H  21)     82.1518         0.010948   
    146. D(H  24,C  18,C  17,O  23)    -81.9593         0.009895   
    147. D(C  19,C  18,C  17,H  22)    -81.9400         0.009895   
    148. D(C  19,C  18,C  17,O  23)    156.5460         0.009895   
    149. D(H  24,C  18,C  17,C  16)    156.5612         0.009895   
    150. D(C  19,C  18,C  17,C  16)     35.0665         0.009895 C 
    151. D(H  24,C  18,C  17,H  22)     39.5547         0.009895   
    152. D(H  25,C  18,C  17,C  16)    -82.9872         0.009895   
    153. D(H  25,C  18,C  17,H  22)    160.0064         0.009895   
    154. D(H  25,C  18,C  17,O  23)     38.4924         0.009895   
    155. D(H  27,C  19,C  18,H  25)   -143.4819         0.009769   
    156. D(O  20,C  19,C  18,H  24)   -140.0066         0.009769   
    157. D(O  20,C  19,C  18,H  25)     99.4520         0.009769   
    158. D(H  26,C  19,C  18,C  17)   -137.6980         0.009769   
    159. D(H  26,C  19,C  18,H  24)    100.5132         0.009769   
    160. D(H  26,C  19,C  18,H  25)    -20.0282         0.009769   
    161. D(H  27,C  19,C  18,C  17)     98.8482         0.009769   
    162. D(O  20,C  19,C  18,C  17)    -18.2179         0.009769 C 
    163. D(H  27,C  19,C  18,H  24)    -22.9406         0.009769   
    164. D(C  19,O  20,C  16,C  12)    -90.0494         0.014089   
    165. D(C  19,O  20,C  16,C  17)     29.5807         0.014089 C 
    166. D(C  19,O  20,C  16,H  21)    151.1792         0.014089   
    167. D(C  16,O  20,C  19,C  18)     -6.8455         0.012811 C 
    168. D(C  16,O  20,C  19,H  26)    114.8280         0.012811   
    169. D(C  16,O  20,C  19,H  27)   -127.4119         0.012811   
    170. D(H  28,O  23,C  17,C  16)     57.7191         0.007724   
    171. D(H  28,O  23,C  17,C  18)    -57.0648         0.007724   
    172. D(H  28,O  23,C  17,H  22)   -179.8990         0.007724   
    -----------------------------------------------------------------

Number of atoms                         .... 29
Number of degrees of freedom            .... 172

         *************************************************************
         *                GEOMETRY OPTIMIZATION CYCLE   1            *
         *************************************************************
---------------------------------
CARTESIAN COORDINATES (ANGSTROEM)
---------------------------------
  C    -21.048033   26.222120   46.251019
  C    -20.360874   27.558036   45.944057
  C    -20.328766   28.221957   47.341084
  C    -20.109902   27.021898   48.296043
  O    -20.473072   25.806967   47.534993
  H    -20.833148   25.428092   45.533016
  H    -19.343899   27.381926   45.576039
  H    -20.897806   28.157131   45.201085
  H    -19.542667   28.977853   47.434102
  H    -21.288701   28.710069   47.548118
  H    -20.732882   27.081946   49.195054
  H    -19.063912   26.912754   48.597025
  C    -23.309026   26.834140   45.072016
  H    -22.571019   26.938074   44.267014
  H    -24.044031   26.078125   44.767066
  O    -22.586017   26.394244   46.375046
  C    -24.057116   28.186098   45.227948
  C    -24.852128   28.530979   43.963920
  C    -26.107068   27.640898   44.128947
  C    -26.344085   27.648959   45.659944
  O    -25.075125   28.091078   46.278936
  H    -23.347173   28.955164   45.538912
  H    -25.127201   29.591960   43.968864
  O    -24.072092   28.234967   42.652944
  H    -26.971088   28.016809   43.570918
  H    -25.896993   26.624895   43.776000
  H    -26.607020   26.658960   46.048991
  H    -27.115139   28.363920   45.959899
  H    -23.787018   27.176985   42.624001

----------------------------
CARTESIAN COORDINATES (A.U.)
----------------------------
  NO LB      ZA    FRAG     MASS         X           Y           Z
   0 C     6.0000    0    12.011  -39.775017   49.552626   87.401759
   1 C     6.0000    0    12.011  -38.476475   52.077141   86.821685
   2 C     6.0000    0    12.011  -38.415800   53.331771   89.461683
   3 C     6.0000    0    12.011  -38.002208   51.063987   91.266294
   4 O     8.0000    0    15.999  -38.688499   48.768099   89.828119
   5 H     1.0000    0     1.008  -39.368945   48.052130   86.044930
   6 H     1.0000    0     1.008  -36.554672   51.744340   86.126231
   7 H     1.0000    0     1.008  -39.491131   53.209267   85.417672
   8 H     1.0000    0     1.008  -36.930289   54.760205   89.637463
   9 H     1.0000    0     1.008  -40.229816   54.254168   89.852922
  10 H     1.0000    0     1.008  -39.179469   51.177461   92.965179
  11 H     1.0000    0     1.008  -36.025573   50.857735   91.835068
  12 C     6.0000    0    12.011  -44.047675   50.709175   85.173767
  13 H     1.0000    0     1.008  -42.653044   50.905582   83.652533
  14 H     1.0000    0     1.008  -45.436634   49.280513   84.597495
  15 O     8.0000    0    15.999  -42.681386   49.877892   87.636136
  16 C     6.0000    0    12.011  -45.461361   53.264006   85.468435
  17 C     6.0000    0    12.011  -46.963715   53.915736   83.079769
  18 C     6.0000    0    12.011  -49.335209   52.233727   83.391624
  19 C     6.0000    0    12.011  -49.783106   52.248960   86.284789
  20 O     8.0000    0    15.999  -47.385119   53.084445   87.454515
  21 H     1.0000    0     1.008  -44.119763   54.717331   86.056073
  22 H     1.0000    0     1.008  -47.483529   55.920700   83.089112
  23 O     8.0000    0    15.999  -45.489661   53.356354   80.602383
  24 H     1.0000    0     1.008  -50.967969   52.944096   82.337102
  25 H     1.0000    0     1.008  -48.938224   50.313760   82.724651
  26 H     1.0000    0     1.008  -50.279981   50.378133   87.019981
  27 H     1.0000    0     1.008  -51.240186   53.600040   86.851621
  28 H     1.0000    0     1.008  -44.950949   51.357059   80.547689

--------------------------------
INTERNAL COORDINATES (ANGSTROEM)
--------------------------------
 C      0   0   0     0.000000000000     0.00000000     0.00000000
 C      1   0   0     1.533334275362     0.00000000     0.00000000
 C      2   1   0     1.547103422529   101.67907390     0.00000000
 C      3   2   1     1.549188819996   103.12737509    35.02687180
 O      1   2   3     1.466801281701   104.24948604   319.98542309
 H      1   2   3     1.091872245274   114.43876658   203.42640133
 H      2   1   3     1.095759553917   110.06782188   117.34000099
 H      2   1   3     1.095088580892   113.12442239   238.72597460
 H      3   2   1     1.094523183857   112.83161078   156.54780790
 H      3   2   1     1.096628013503   110.07982737   276.98070077
 H      4   3   2     1.095413164062   112.52534669   222.25678475
 H      4   3   2     1.093891219455   112.45670684    98.86663270
 C      1   2   3     2.622347421682    95.33299893   108.21776102
 H     13   1   2     1.097034639380    76.82139997    58.27778847
 H     13   1   2     1.097627441348   122.78878738   161.58482464
 O      1   2   3     1.552547583812   111.30349807    79.08752829
 C     13   1   2     1.552979072621   124.98053007   314.90633312
 C     17  13   1     1.532561907396   111.28358799   150.20022704
 C     18  17  13     1.547368734336   101.73003967    79.05837054
 C     19  18  17     1.549255950448   103.08983051    35.06647461
 O     17  13   1     1.466270779904   110.48729517   265.47365906
 H     17  13   1     1.091870871486   109.18141014    22.92958127
 H     18  17  13     1.096070709398   110.13893161   196.44047682
 O     18  17  13     1.553942405625   113.11381303   317.79709927
 H     19  18  17     1.095096342794   112.83513965   156.56117300
 H     19  18  17     1.095885486718   110.08877029   277.01279121
 H     20  19  18     1.095714378841   112.51274307   222.30196804
 H     20  19  18     1.093465134332   112.48020779    98.84821963
 H     24  18  17     1.096097623389   109.67577304    57.71903071

---------------------------
INTERNAL COORDINATES (A.U.)
---------------------------
 C      0   0   0     0.000000000000     0.00000000     0.00000000
 C      1   0   0     2.897581852189     0.00000000     0.00000000
 C      2   1   0     2.923601769431   101.67907390     0.00000000
 C      3   2   1     2.927542599525   103.12737509    35.02687180
 O      1   2   3     2.771852715300   104.24948604   319.98542309
 H      1   2   3     2.063339516798   114.43876658   203.42640133
 H      2   1   3     2.070685465531   110.06782188   117.34000099
 H      2   1   3     2.069417510270   113.12442239   238.72597460
 H      3   2   1     2.068349064717   112.83161078   156.54780790
 H      3   2   1     2.072326616307   110.07982737   276.98070077
 H      4   3   2     2.070030883569   112.52534669   222.25678475
 H      4   3   2     2.067154825070   112.45670684    98.86663270
 C      1   2   3     4.955518454973    95.33299893   108.21776102
 H     13   1   2     2.073095027854    76.82139997    58.27778847
 H     13   1   2     2.074215261224   122.78878738   161.58482464
 O      1   2   3     2.933889743286   111.30349807    79.08752829
 C     13   1   2     2.934705138965   124.98053007   314.90633312
 C     17  13   1     2.896122288258   111.28358799   150.20022704
 C     18  17  13     2.924103136087   101.73003967    79.05837054
 C     19  18  17     2.927669457695   103.08983051    35.06647461
 O     17  13   1     2.770850212190   110.48729517   265.47365906
 H     17  13   1     2.063336920715   109.18141014    22.92958127
 H     18  17  13     2.071273464175   110.13893161   196.44047682
 O     18  17  13     2.936525574518   113.11381303   317.79709927
 H     19  18  17     2.069432178139   112.83513965   156.56117300
 H     19  18  17     2.070923444037   110.08877029   277.01279121
 H     20  19  18     2.070600097010   112.51274307   222.30196804
 H     20  19  18     2.066349640879   112.48020779    98.84821963
 H     24  18  17     2.071324324248   109.67577304    57.71903071

---------------------
BASIS SET INFORMATION
---------------------
There are 3 groups of distinct atoms

 Group   1 Type C   : 10s4p contracted to 3s2p pattern {631/31}
 Group   2 Type O   : 10s4p contracted to 3s2p pattern {631/31}
 Group   3 Type H   : 4s contracted to 2s pattern {31}

Atom   0C    basis set group =>   1
Atom   1C    basis set group =>   1
Atom   2C    basis set group =>   1
Atom   3C    basis set group =>   1
Atom   4O    basis set group =>   2
Atom   5H    basis set group =>   3
Atom   6H    basis set group =>   3
Atom   7H    basis set group =>   3
Atom   8H    basis set group =>   3
Atom   9H    basis set group =>   3
Atom  10H    basis set group =>   3
Atom  11H    basis set group =>   3
Atom  12C    basis set group =>   1
Atom  13H    basis set group =>   3
Atom  14H    basis set group =>   3
Atom  15O    basis set group =>   2
Atom  16C    basis set group =>   1
Atom  17C    basis set group =>   1
Atom  18C    basis set group =>   1
Atom  19C    basis set group =>   1
Atom  20O    basis set group =>   2
Atom  21H    basis set group =>   3
Atom  22H    basis set group =>   3
Atom  23O    basis set group =>   2
Atom  24H    basis set group =>   3
Atom  25H    basis set group =>   3
Atom  26H    basis set group =>   3
Atom  27H    basis set group =>   3
Atom  28H    basis set group =>   3
------------------------------------------------------------------------------
                           ORCA GTO INTEGRAL CALCULATION
------------------------------------------------------------------------------

                         BASIS SET STATISTICS AND STARTUP INFO

 # of primitive gaussian shells          ...  246
 # of primitive gaussian functions       ...  350
 # of contracted shells                  ...   97
 # of contracted basis functions         ...  149
 Highest angular momentum                ...    1
 Maximum contraction depth               ...    6
 Integral package used                   ... LIBINT
 Integral threshhold            Thresh   ...  2.500e-11
 Primitive cut-off              TCut     ...  2.500e-12


------------------------------ INTEGRAL EVALUATION ----------------------------


 * One electron integrals 
 Pre-screening matrix                    ... done
 Shell pair data                         ... done (   0.003 sec)

-------------------------------------------------------------------------------
                                 ORCA SCF
-------------------------------------------------------------------------------

------------
SCF SETTINGS
------------
Hamiltonian:
 Density Functional     Method          .... DFT(GTOs)
 Exchange Functional    Exchange        .... B88
   X-Alpha parameter    XAlpha          ....  0.666667
   Becke's b parameter  XBeta           ....  0.004200
 Correlation Functional Correlation     .... LYP
 LDA part of GGA corr.  LDAOpt          .... VWN-5
 Gradients option       PostSCFGGA      .... off
 Hybrid DFT is turned on
   Fraction HF Exchange ScalHFX         ....  0.200000
   Scaling of DF-GGA-X  ScalDFX         ....  0.720000
   Scaling of DF-GGA-C  ScalDFC         ....  0.810000
   Scaling of DF-LDA-C  ScalLDAC        ....  1.000000
   Perturbative correction              ....  0.000000
   Density functional embedding theory  .... OFF
   NL short-range parameter             ....  4.800000


General Settings:
 Integral files         IntName         .... project_8053/ensemble_180_240
 Hartree-Fock type      HFTyp           .... RHF
 Total Charge           Charge          ....    0
 Multiplicity           Mult            ....    1
 Number of Electrons    NEL             ....  102
 Basis Dimension        Dim             ....  149
 Nuclear Repulsion      ENuc            ....    859.7534424321 Eh

Convergence Acceleration:
 DIIS                   CNVDIIS         .... on
   Start iteration      DIISMaxIt       ....    12
   Startup error        DIISStart       ....  0.200000
   # of expansion vecs  DIISMaxEq       ....     5
   Bias factor          DIISBfac        ....   1.050
   Max. coefficient     DIISMaxC        ....  10.000
 Newton-Raphson         CNVNR           .... off
 SOSCF                  CNVSOSCF        .... on
   Start iteration      SOSCFMaxIt      ....   150
   Startup grad/error   SOSCFStart      ....  0.003300
 Level Shifting         CNVShift        .... on
   Level shift para.    LevelShift      ....    0.2500
   Turn off err/grad.   ShiftErr        ....    0.0010
 Zerner damping         CNVZerner       .... off
 Static damping         CNVDamp         .... on
   Fraction old density DampFac         ....    0.7000
   Max. Damping (<1)    DampMax         ....    0.9800
   Min. Damping (>=0)   DampMin         ....    0.0000
   Turn off err/grad.   DampErr         ....    0.1000
 Fernandez-Rico         CNVRico         .... off

SCF Procedure:
 Maximum # iterations   MaxIter         ....   125
 SCF integral mode      SCFMode         .... Direct
   Integral package                     .... LIBINT
 Reset frequency        DirectResetFreq ....    20
 Integral Threshold     Thresh          ....  2.500e-11 Eh
 Primitive CutOff       TCut            ....  2.500e-12 Eh

Convergence Tolerance:
 Convergence Check Mode ConvCheckMode   .... Total+1el-Energy
 Convergence forced     ConvForced      .... 0
 Energy Change          TolE            ....  1.000e-08 Eh
 1-El. energy change                    ....  1.000e-05 Eh
 Orbital Gradient       TolG            ....  1.000e-05
 Orbital Rotation angle TolX            ....  1.000e-05
 DIIS Error             TolErr          ....  5.000e-07


Diagonalization of the overlap matrix:
Smallest eigenvalue                        ... 3.906e-03
Time for diagonalization                   ...    0.007 sec
Threshold for overlap eigenvalues          ... 1.000e-08
Number of eigenvalues below threshold      ... 0
Time for construction of square roots      ...    0.008 sec
Total time needed                          ...    0.015 sec

-------------------
DFT GRID GENERATION
-------------------

General Integration Accuracy     IntAcc      ...  4.340
Radial Grid Type                 RadialGrid  ... Gauss-Chebyshev
Angular Grid (max. acc.)         AngularGrid ... Lebedev-110
Angular grid pruning method      GridPruning ... 3 (G Style)
Weight generation scheme         WeightScheme... Becke
Basis function cutoff            BFCut       ...    1.0000e-11
Integration weight cutoff        WCut        ...    1.0000e-14
Grids for H and He will be reduced by one unit

# of grid points (after initial pruning)     ...  34472 (   0.0 sec)
# of grid points (after weights+screening)   ...  30987 (   0.5 sec)
nearest neighbour list constructed           ...    0.0 sec
Grid point re-assignment to atoms done       ...    0.0 sec
Grid point division into batches done        ...    0.0 sec
Reduced shell lists constructed in    0.5 sec

Total number of grid points                  ...    30987
Total number of batches                      ...      498
Average number of points per batch           ...       62
Average number of grid points per atom       ...     1069
Average number of shells per batch           ...    58.32 (60.12%)
Average number of basis functions per batch  ...    94.56 (63.46%)
Average number of large shells per batch     ...    40.88 (70.09%)
Average number of large basis fcns per batch ...    67.51 (71.40%)
Maximum spatial batch extension              ...  19.24, 20.90, 18.27 au
Average spatial batch extension              ...   3.25,  3.40,  3.35 au

Time for grid setup =    1.036 sec

------------------------------
INITIAL GUESS: MODEL POTENTIAL
------------------------------
Loading Hartree-Fock densities                     ... done
Calculating cut-offs                               ... done
Setting up the integral package                    ... done
Initializing the effective Hamiltonian             ... done
Starting the Coulomb interaction                   ... done (   0.5 sec)
Reading the grid                                   ... done
Mapping shells                                     ... done
Starting the XC term evaluation                    ... done (   0.5 sec)
  promolecular density results
     # of electrons  =    101.988752348
     EX              =    -83.664718204
     EC              =     -3.458011555
     EX+EC           =    -87.122729759
Transforming the Hamiltonian                       ... done (   0.0 sec)
Diagonalizing the Hamiltonian                      ... done (   0.0 sec)
Back transforming the eigenvectors                 ... done (   0.0 sec)
Now organizing SCF variables                       ... done
                      ------------------
                      INITIAL GUESS DONE (   2.2 sec)
                      ------------------
--------------
SCF ITERATIONS
--------------
ITER       Energy         Delta-E        Max-DP      RMS-DP      [F,P]     Damp
               ***  Starting incremental Fock matrix formation  ***
  0   -652.5215552543   0.000000000000 0.07905285  0.00316836  0.2572631 0.7000
  1   -652.6637768700  -0.142221615700 0.04780371  0.00215805  0.1136478 0.7000
                               ***Turning on DIIS***
  2   -652.7167387097  -0.052961839624 0.05947870  0.00337854  0.0305738 0.0000
  3   -652.8041520368  -0.087413327157 0.03203561  0.00144153  0.0624329 0.0000
  4   -652.8218720827  -0.017720045869 0.00845081  0.00043630  0.0098666 0.0000
  5   -652.8229298732  -0.001057790542 0.00281641  0.00013229  0.0043604 0.0000
                      *** Initiating the SOSCF procedure ***
                           *** Shutting down DIIS ***
                      *** Re-Reading the Fockian *** 
                      *** Removing any level shift *** 
ITER      Energy       Delta-E        Grad      Rot      Max-DP    RMS-DP
  6   -652.82300080  -0.0000709276  0.000192  0.000192  0.000840  0.000055
               *** Restarting incremental Fock matrix formation ***
  7   -652.82300371  -0.0000029141  0.000107  0.000220  0.000897  0.000033
  8   -652.82300160   0.0000021136  0.000198  0.000153  0.000524  0.000021
  9   -652.82300502  -0.0000034232  0.000025  0.000045  0.000206  0.000006
 10   -652.82300497   0.0000000569  0.000040  0.000027  0.000127  0.000004
 11   -652.82300508  -0.0000001149  0.000004  0.000007  0.000024  0.000001
 12   -652.82300508   0.0000000017  0.000007  0.000004  0.000015  0.000001
                  ***Gradient check signals convergence***
              ***Rediagonalizing the Fockian in SOSCF/NRSCF***

               *****************************************************
               *                     SUCCESS                       *
               *           SCF CONVERGED AFTER  13 CYCLES          *
               *****************************************************

Setting up the final grid:

General Integration Accuracy     IntAcc      ...  4.670
Radial Grid Type                 RadialGrid  ... Gauss-Chebyshev
Angular Grid (max. acc.)         AngularGrid ... Lebedev-302
Angular grid pruning method      GridPruning ... 3 (G Style)
Weight generation scheme         WeightScheme... Becke
Basis function cutoff            BFCut       ...    1.0000e-11
Integration weight cutoff        WCut        ...    1.0000e-14
Grids for H and He will be reduced by one unit

# of grid points (after initial pruning)     ... 135060 (   0.1 sec)
# of grid points (after weights+screening)   ... 118946 (   1.6 sec)
nearest neighbour list constructed           ...    0.0 sec
Grid point re-assignment to atoms done       ...    0.0 sec
Grid point division into batches done        ...    0.5 sec
Reduced shell lists constructed in    1.8 sec

Total number of grid points                  ...   118946
Total number of batches                      ...     1874
Average number of points per batch           ...       63
Average number of grid points per atom       ...     4102
Average number of shells per batch           ...    53.07 (54.71%)
Average number of basis functions per batch  ...    86.29 (57.91%)
Average number of large shells per batch     ...    36.58 (68.93%)
Average number of large basis fcns per batch ...    60.53 (70.15%)
Maximum spatial batch extension              ...  19.00, 19.19, 19.88 au
Average spatial batch extension              ...   2.18,  2.24,  2.24 au

Final grid set up in   14.1 sec
Final integration                            ... done (   1.9 sec)
Change in XC energy                          ...    -0.000037342
Integrated number of electrons               ...   101.999956579
Previous integrated no of electrons          ...   102.000418567

----------------
TOTAL SCF ENERGY
----------------

Total Energy       :         -652.82304243 Eh          -17764.21810 eV

Components:
Nuclear Repulsion  :          859.75344243 Eh           23395.08055 eV
Electronic Energy  :        -1512.57648486 Eh          -41159.29865 eV
One Electron Energy:        -2597.06747790 Eh          -70669.79886 eV
Two Electron Energy:         1084.49099304 Eh           29510.50021 eV

Virial components:
Potential Energy   :        -1301.74637526 Eh          -35422.31971 eV
Kinetic Energy     :          648.92333283 Eh           17658.10161 eV
Virial Ratio       :            2.00600951


DFT components:
N(Alpha)           :       50.999978289655 electrons
N(Beta)            :       50.999978289655 electrons
N(Total)           :      101.999956579310 electrons
E(X)               :      -67.585054806311 Eh       
E(C)               :       -4.068797269172 Eh       
E(XC)              :      -71.653852075483 Eh       
DFET-embed. en.    :        0.000000000000 Eh       

---------------
SCF CONVERGENCE
---------------

  Last Energy change         ...   -2.5681e-09  Tolerance :   1.0000e-08
  Last MAX-Density change    ...    3.0498e-06  Tolerance :   1.0000e-07
  Last RMS-Density change    ...    1.0631e-07  Tolerance :   5.0000e-09
  Last Orbital Gradient      ...    3.8046e-07  Tolerance :   1.0000e-05
  Last Orbital Rotation      ...    7.6067e-07  Tolerance :   1.0000e-05

             **** THE GBW FILE WAS UPDATED (project_8053/ensemble_180_240.gbw) ****
             **** DENSITY FILE WAS UPDATED (project_8053/ensemble_180_240.scfp) ****
             **** ENERGY FILE WAS UPDATED (project_8053/ensemble_180_240.en.tmp) ****
             **** THE GBW FILE WAS UPDATED (project_8053/ensemble_180_240.gbw) ****
             **** DENSITY FILE WAS UPDATED (project_8053/ensemble_180_240.scfp) ****
----------------
ORBITAL ENERGIES
----------------

  NO   OCC          E(Eh)            E(eV) 
   0   2.0000     -19.161927      -521.4225 
   1   2.0000     -19.149459      -521.0833 
   2   2.0000     -19.141939      -520.8787 
   3   2.0000     -19.140517      -520.8400 
   4   2.0000     -10.283191      -279.8198 
   5   2.0000     -10.255688      -279.0714 
   6   2.0000     -10.242617      -278.7158 
   7   2.0000     -10.239888      -278.6415 
   8   2.0000     -10.232797      -278.4486 
   9   2.0000     -10.224490      -278.2225 
  10   2.0000     -10.198830      -277.5243 
  11   2.0000     -10.191091      -277.3137 
  12   2.0000     -10.186729      -277.1950 
  13   2.0000      -1.033144       -28.1133 
  14   2.0000      -1.028064       -27.9750 
  15   2.0000      -0.981132       -26.6980 
  16   2.0000      -0.960434       -26.1347 
  17   2.0000      -0.789575       -21.4854 
  18   2.0000      -0.786272       -21.3956 
  19   2.0000      -0.766899       -20.8684 
  20   2.0000      -0.730416       -19.8756 
  21   2.0000      -0.684168       -18.6172 
  22   2.0000      -0.607957       -16.5434 
  23   2.0000      -0.598428       -16.2840 
  24   2.0000      -0.587732       -15.9930 
  25   2.0000      -0.577331       -15.7100 
  26   2.0000      -0.520631       -14.1671 
  27   2.0000      -0.503523       -13.7016 
  28   2.0000      -0.497616       -13.5408 
  29   2.0000      -0.489634       -13.3236 
  30   2.0000      -0.464515       -12.6401 
  31   2.0000      -0.446196       -12.1416 
  32   2.0000      -0.442525       -12.0417 
  33   2.0000      -0.433884       -11.8066 
  34   2.0000      -0.424657       -11.5555 
  35   2.0000      -0.419054       -11.4031 
  36   2.0000      -0.406788       -11.0693 
  37   2.0000      -0.401415       -10.9231 
  38   2.0000      -0.379971       -10.3395 
  39   2.0000      -0.372451       -10.1349 
  40   2.0000      -0.358164        -9.7461 
  41   2.0000      -0.354367        -9.6428 
  42   2.0000      -0.352814        -9.6006 
  43   2.0000      -0.335967        -9.1421 
  44   2.0000      -0.316643        -8.6163 
  45   2.0000      -0.314047        -8.5456 
  46   2.0000      -0.298104        -8.1118 
  47   2.0000      -0.274757        -7.4765 
  48   2.0000      -0.260433        -7.0867 
  49   2.0000      -0.258367        -7.0305 
  50   2.0000      -0.239076        -6.5056 
  51   0.0000       0.015849         0.4313 
  52   0.0000       0.064968         1.7679 
  53   0.0000       0.068120         1.8536 
  54   0.0000       0.078150         2.1266 
  55   0.0000       0.092410         2.5146 
  56   0.0000       0.105823         2.8796 
  57   0.0000       0.110074         2.9953 
  58   0.0000       0.113981         3.1016 
  59   0.0000       0.125952         3.4273 
  60   0.0000       0.134789         3.6678 
  61   0.0000       0.141331         3.8458 
  62   0.0000       0.143468         3.9040 
  63   0.0000       0.151076         4.1110 
  64   0.0000       0.154145         4.1945 
  65   0.0000       0.161910         4.4058 
  66   0.0000       0.166873         4.5408 
  67   0.0000       0.182614         4.9692 
  68   0.0000       0.187515         5.1025 
  69   0.0000       0.192071         5.2265 
  70   0.0000       0.199915         5.4400 
  71   0.0000       0.217364         5.9148 
  72   0.0000       0.225328         6.1315 
  73   0.0000       0.236876         6.4457 
  74   0.0000       0.243382         6.6228 
  75   0.0000       0.258478         7.0336 
  76   0.0000       0.266867         7.2618 
  77   0.0000       0.267133         7.2691 
  78   0.0000       0.273290         7.4366 
  79   0.0000       0.286858         7.8058 
  80   0.0000       0.295683         8.0459 
  81   0.0000       0.527762        14.3611 
  82   0.0000       0.535738        14.5782 
  83   0.0000       0.539493        14.6804 
  84   0.0000       0.552300        15.0288 
  85   0.0000       0.554334        15.0842 
  86   0.0000       0.559690        15.2299 
  87   0.0000       0.572189        15.5701 
  88   0.0000       0.575908        15.6713 
  89   0.0000       0.587441        15.9851 
  90   0.0000       0.593848        16.1594 
  91   0.0000       0.606923        16.5152 
  92   0.0000       0.616970        16.7886 
  93   0.0000       0.630173        17.1479 
  94   0.0000       0.642287        17.4775 
  95   0.0000       0.645671        17.5696 
  96   0.0000       0.658153        17.9093 
  97   0.0000       0.668945        18.2029 
  98   0.0000       0.680052        18.5052 
  99   0.0000       0.688495        18.7349 
 100   0.0000       0.705695        19.2029 
 101   0.0000       0.734037        19.9742 
 102   0.0000       0.785787        21.3823 
 103   0.0000       0.797114        21.6906 
 104   0.0000       0.817394        22.2424 
 105   0.0000       0.828990        22.5580 
 106   0.0000       0.840409        22.8687 
 107   0.0000       0.843447        22.9514 
 108   0.0000       0.864754        23.5311 
 109   0.0000       0.873764        23.7763 
 110   0.0000       0.879591        23.9349 
 111   0.0000       0.887021        24.1371 
 112   0.0000       0.894744        24.3472 
 113   0.0000       0.898383        24.4463 
 114   0.0000       0.917182        24.9578 
 115   0.0000       0.928708        25.2714 
 116   0.0000       0.939791        25.5730 
 117   0.0000       0.946964        25.7682 
 118   0.0000       0.952196        25.9106 
 119   0.0000       0.957397        26.0521 
 120   0.0000       0.964746        26.2521 
 121   0.0000       0.980505        26.6809 
 122   0.0000       1.003387        27.3035 
 123   0.0000       1.014416        27.6037 
 124   0.0000       1.033078        28.1115 
 125   0.0000       1.058210        28.7954 
 126   0.0000       1.065895        29.0045 
 127   0.0000       1.100645        29.9501 
 128   0.0000       1.117701        30.4142 
 129   0.0000       1.151979        31.3469 
 130   0.0000       1.207220        32.8501 
 131   0.0000       1.222811        33.2744 
 132   0.0000       1.232559        33.5396 
 133   0.0000       1.279542        34.8181 
 134   0.0000       1.340671        36.4815 
 135   0.0000       1.363002        37.0892 
 136   0.0000       1.373535        37.3758 
 137   0.0000       1.416386        38.5418 
 138   0.0000       1.436973        39.1020 
 139   0.0000       1.456950        39.6456 
 140   0.0000       1.509755        41.0825 
 141   0.0000       1.533722        41.7347 
 142   0.0000       1.575417        42.8693 
 143   0.0000       1.662001        45.2253 
 144   0.0000       1.716179        46.6996 
 145   0.0000       1.840480        50.0820 
 146   0.0000       1.931486        52.5584 
 147   0.0000       2.014467        54.8164 
 148   0.0000       2.095886        57.0320 

                    ********************************
                    * MULLIKEN POPULATION ANALYSIS *
                    ********************************

-----------------------
MULLIKEN ATOMIC CHARGES
-----------------------
   0 C :    0.296797
   1 C :   -0.286352
   2 C :   -0.301664
   3 C :   -0.001489
   4 O :   -0.500847
   5 H :    0.146091
   6 H :    0.148867
   7 H :    0.149974
   8 H :    0.142121
   9 H :    0.168372
  10 H :    0.157743
  11 H :    0.141421
  12 C :   -0.048136
  13 H :    0.125392
  14 H :    0.139478
  15 O :   -0.491881
  16 C :    0.077010
  17 C :    0.074181
  18 C :   -0.315345
  19 C :   -0.012264
  20 O :   -0.496881
  21 H :    0.159497
  22 H :    0.173283
  23 O :   -0.590599
  24 H :    0.158576
  25 H :    0.143412
  26 H :    0.151489
  27 H :    0.150051
  28 H :    0.341706
Sum of atomic charges:   -0.0000000

--------------------------------
MULLIKEN REDUCED ORBITAL CHARGES
--------------------------------
  0 C s       :     3.227923  s :     3.227923
      pz      :     0.795781  p :     2.475280
      px      :     0.695922
      py      :     0.983576
  1 C s       :     3.309020  s :     3.309020
      pz      :     0.987450  p :     2.977333
      px      :     1.041391
      py      :     0.948492
  2 C s       :     3.316768  s :     3.316768
      pz      :     0.903125  p :     2.984897
      px      :     1.088649
      py      :     0.993123
  3 C s       :     3.261761  s :     3.261761
      pz      :     0.944295  p :     2.739728
      px      :     1.055439
      py      :     0.739995
  4 O s       :     3.948702  s :     3.948702
      pz      :     1.318421  p :     4.552145
      px      :     1.714297
      py      :     1.519427
  5 H s       :     0.853909  s :     0.853909
  6 H s       :     0.851133  s :     0.851133
  7 H s       :     0.850026  s :     0.850026
  8 H s       :     0.857879  s :     0.857879
  9 H s       :     0.831628  s :     0.831628
 10 H s       :     0.842257  s :     0.842257
 11 H s       :     0.858579  s :     0.858579
 12 C s       :     3.289597  s :     3.289597
      pz      :     0.819365  p :     2.758539
      px      :     0.955876
      py      :     0.983299
 13 H s       :     0.874608  s :     0.874608
 14 H s       :     0.860522  s :     0.860522
 15 O s       :     3.954314  s :     3.954314
      pz      :     1.443510  p :     4.537567
      px      :     1.261599
      py      :     1.832457
 16 C s       :     3.271175  s :     3.271175
      pz      :     0.779214  p :     2.651814
      px      :     0.860282
      py      :     1.012319
 17 C s       :     3.289598  s :     3.289598
      pz      :     0.722335  p :     2.636221
      px      :     0.872952
      py      :     1.040933
 18 C s       :     3.325312  s :     3.325312
      pz      :     0.953353  p :     2.990033
      px      :     1.012154
      py      :     1.024527
 19 C s       :     3.263945  s :     3.263945
      pz      :     0.887156  p :     2.748319
      px      :     0.788805
      py      :     1.072359
 20 O s       :     3.947720  s :     3.947720
      pz      :     1.530396  p :     4.549161
      px      :     1.198783
      py      :     1.819982
 21 H s       :     0.840503  s :     0.840503
 22 H s       :     0.826717  s :     0.826717
 23 O s       :     3.954012  s :     3.954012
      pz      :     1.514233  p :     4.636587
      px      :     1.754350
      py      :     1.368005
 24 H s       :     0.841424  s :     0.841424
 25 H s       :     0.856588  s :     0.856588
 26 H s       :     0.848511  s :     0.848511
 27 H s       :     0.849949  s :     0.849949
 28 H s       :     0.658294  s :     0.658294


                     *******************************
                     * LOEWDIN POPULATION ANALYSIS *
                     *******************************

----------------------
LOEWDIN ATOMIC CHARGES
----------------------
   0 C :    0.190119
   1 C :   -0.231289
   2 C :   -0.217567
   3 C :   -0.026834
   4 O :   -0.298066
   5 H :    0.101334
   6 H :    0.115927
   7 H :    0.116017
   8 H :    0.113981
   9 H :    0.120382
  10 H :    0.110994
  11 H :    0.101786
  12 C :   -0.058510
  13 H :    0.097264
  14 H :    0.103626
  15 O :   -0.351869
  16 C :    0.020927
  17 C :    0.040020
  18 C :   -0.235889
  19 C :   -0.031653
  20 O :   -0.311434
  21 H :    0.115759
  22 H :    0.127182
  23 O :   -0.435969
  24 H :    0.123794
  25 H :    0.108899
  26 H :    0.106706
  27 H :    0.106134
  28 H :    0.278225

-------------------------------
LOEWDIN REDUCED ORBITAL CHARGES
-------------------------------
  0 C s       :     2.979124  s :     2.979124
      pz      :     0.916464  p :     2.830757
      px      :     0.835308
      py      :     1.078985
  1 C s       :     2.979874  s :     2.979874
      pz      :     1.077998  p :     3.251415
      px      :     1.109706
      py      :     1.063711
  2 C s       :     2.973078  s :     2.973078
      pz      :     1.029346  p :     3.244488
      px      :     1.134394
      py      :     1.080748
  3 C s       :     2.983925  s :     2.983925
      pz      :     1.040644  p :     3.042909
      px      :     1.118579
      py      :     0.883687
  4 O s       :     3.607041  s :     3.607041
      pz      :     1.379341  p :     4.691025
      px      :     1.746329
      py      :     1.565355
  5 H s       :     0.898666  s :     0.898666
  6 H s       :     0.884073  s :     0.884073
  7 H s       :     0.883983  s :     0.883983
  8 H s       :     0.886019  s :     0.886019
  9 H s       :     0.879618  s :     0.879618
 10 H s       :     0.889006  s :     0.889006
 11 H s       :     0.898214  s :     0.898214
 12 C s       :     3.002365  s :     3.002365
      pz      :     0.915480  p :     3.056145
      px      :     1.055578
      py      :     1.085087
 13 H s       :     0.902736  s :     0.902736
 14 H s       :     0.896374  s :     0.896374
 15 O s       :     3.664705  s :     3.664705
      pz      :     1.504152  p :     4.687164
      px      :     1.327304
      py      :     1.855708
 16 C s       :     2.966880  s :     2.966880
      pz      :     0.939012  p :     3.012193
      px      :     0.983978
      py      :     1.089204
 17 C s       :     2.973990  s :     2.973990
      pz      :     0.878031  p :     2.985990
      px      :     0.995651
      py      :     1.112307
 18 C s       :     2.981516  s :     2.981516
      pz      :     1.065264  p :     3.254373
      px      :     1.087502
      py      :     1.101607
 19 C s       :     2.981842  s :     2.981842
      pz      :     1.011395  p :     3.049811
      px      :     0.914172
      py      :     1.124244
 20 O s       :     3.604739  s :     3.604739
      pz      :     1.584964  p :     4.706695
      px      :     1.273744
      py      :     1.847987
 21 H s       :     0.884241  s :     0.884241
 22 H s       :     0.872818  s :     0.872818
 23 O s       :     3.694452  s :     3.694452
      pz      :     1.557568  p :     4.741517
      px      :     1.773960
      py      :     1.409989
 24 H s       :     0.876206  s :     0.876206
 25 H s       :     0.891101  s :     0.891101
 26 H s       :     0.893294  s :     0.893294
 27 H s       :     0.893866  s :     0.893866
 28 H s       :     0.721775  s :     0.721775


                      *****************************
                      * MAYER POPULATION ANALYSIS *
                      *****************************

  NA   - Mulliken gross atomic population
  ZA   - Total nuclear charge
  QA   - Mulliken gross atomic charge
  VA   - Mayer's total valence
  BVA  - Mayer's bonded valence
  FA   - Mayer's free valence

  ATOM       NA         ZA         QA         VA         BVA        FA
  0 C      5.7032     6.0000     0.2968     3.6622     3.6622    -0.0000
  1 C      6.2864     6.0000    -0.2864     3.7153     3.7153    -0.0000
  2 C      6.3017     6.0000    -0.3017     3.7594     3.7594    -0.0000
  3 C      6.0015     6.0000    -0.0015     3.6531     3.6531    -0.0000
  4 O      8.5008     8.0000    -0.5008     1.8301     1.8301     0.0000
  5 H      0.8539     1.0000     0.1461     0.9271     0.9271    -0.0000
  6 H      0.8511     1.0000     0.1489     0.9316     0.9316     0.0000
  7 H      0.8500     1.0000     0.1500     0.9375     0.9375    -0.0000
  8 H      0.8579     1.0000     0.1421     0.9364     0.9364    -0.0000
  9 H      0.8316     1.0000     0.1684     0.9338     0.9338     0.0000
 10 H      0.8423     1.0000     0.1577     0.9245     0.9245     0.0000
 11 H      0.8586     1.0000     0.1414     0.9283     0.9283    -0.0000
 12 C      6.0481     6.0000    -0.0481     3.6612     3.6612    -0.0000
 13 H      0.8746     1.0000     0.1254     0.9452     0.9452     0.0000
 14 H      0.8605     1.0000     0.1395     0.9346     0.9346     0.0000
 15 O      8.4919     8.0000    -0.4919     1.7919     1.7919     0.0000
 16 C      5.9230     6.0000     0.0770     3.5785     3.5785    -0.0000
 17 C      5.9258     6.0000     0.0742     3.6321     3.6321     0.0000
 18 C      6.3153     6.0000    -0.3153     3.7184     3.7184    -0.0000
 19 C      6.0123     6.0000    -0.0123     3.6501     3.6501     0.0000
 20 O      8.4969     8.0000    -0.4969     1.7837     1.7837     0.0000
 21 H      0.8405     1.0000     0.1595     0.9361     0.9361     0.0000
 22 H      0.8267     1.0000     0.1733     0.9276     0.9276     0.0000
 23 O      8.5906     8.0000    -0.5906     1.7665     1.7665     0.0000
 24 H      0.8414     1.0000     0.1586     0.9374     0.9374    -0.0000
 25 H      0.8566     1.0000     0.1434     0.9408     0.9408     0.0000
 26 H      0.8485     1.0000     0.1515     0.9245     0.9245     0.0000
 27 H      0.8499     1.0000     0.1501     0.9271     0.9271     0.0000
 28 H      0.6583     1.0000     0.3417     0.8559     0.8559    -0.0000

  Mayer bond orders larger than 0.100000
B(  0-C ,  1-C ) :   0.9235 B(  0-C ,  4-O ) :   0.9393 B(  0-C ,  5-H ) :   0.9220 
B(  0-C , 15-O ) :   0.8315 B(  1-C ,  2-C ) :   0.9541 B(  1-C ,  6-H ) :   0.9319 
B(  1-C ,  7-H ) :   0.9307 B(  2-C ,  3-C ) :   0.9550 B(  2-C ,  8-H ) :   0.9444 
B(  2-C ,  9-H ) :   0.9411 B(  3-C ,  4-O ) :   0.8343 B(  3-C , 10-H ) :   0.9329 
B(  3-C , 11-H ) :   0.9385 B( 12-C , 13-H ) :   0.8993 B( 12-C , 14-H ) :   0.9210 
B( 12-C , 15-O ) :   0.8758 B( 12-C , 16-C ) :   0.8896 B( 16-C , 17-C ) :   0.8741 
B( 16-C , 20-O ) :   0.8751 B( 16-C , 21-H ) :   0.9305 B( 17-C , 18-C ) :   0.9184 
B( 17-C , 22-H ) :   0.9309 B( 17-C , 23-O ) :   0.8865 B( 18-C , 19-C ) :   0.9295 
B( 18-C , 24-H ) :   0.9426 B( 18-C , 25-H ) :   0.9410 B( 19-C , 20-O ) :   0.8469 
B( 19-C , 26-H ) :   0.9306 B( 19-C , 27-H ) :   0.9372 B( 23-O , 28-H ) :   0.8022 


-------
TIMINGS
-------

Total SCF time: 0 days 0 hours 3 min 18 sec 

Total time                  ....     198.128 sec
Sum of individual times     ....     196.591 sec  ( 99.2%)

Fock matrix formation       ....     179.695 sec  ( 90.7%)
  XC integration            ....      26.027 sec  ( 14.5% of F)
    Basis function eval.    ....       3.798 sec  ( 14.6% of XC)
    Density eval.           ....       2.017 sec  (  7.7% of XC)
    XC-Functional eval.     ....       0.920 sec  (  3.5% of XC)
    XC-Potential eval.      ....       2.156 sec  (  8.3% of XC)
Diagonalization             ....       0.141 sec  (  0.1%)
Density matrix formation    ....       0.010 sec  (  0.0%)
Population analysis         ....       0.016 sec  (  0.0%)
Initial guess               ....       1.139 sec  (  0.6%)
Orbital Transformation      ....       0.000 sec  (  0.0%)
Orbital Orthonormalization  ....       0.000 sec  (  0.0%)
DIIS solution               ....       0.325 sec  (  0.2%)
SOSCF solution              ....       0.110 sec  (  0.1%)
Grid generation             ....      15.155 sec  (  7.6%)

-------------------------   --------------------
FINAL SINGLE POINT ENERGY      -652.823042425451
-------------------------   --------------------

------------------------------------------------------------------------------
                         ORCA SCF GRADIENT CALCULATION
------------------------------------------------------------------------------

Gradient of the Kohn-Sham DFT energy:
Kohn-Sham wavefunction type      ... RKS
Hartree-Fock exchange scaling    ...    0.200
Number of operators              ...    1
Number of atoms                  ...   29
Basis set dimensions             ...  149
Integral neglect threshold       ... 2.5e-11
Integral primitive cutoff        ... 2.5e-12

Nuclear repulsion gradient       ... done
One Electron Gradient            ... done
Pre-screening matrix             ... done
Starting the two electron gradient:
Two electron gradient done
Exchange-correlation gradient    ... done

------------------
CARTESIAN GRADIENT
------------------

   1   C   :    0.010158185   -0.000785391   -0.003825701
   2   C   :    0.005989480   -0.002640179   -0.004518187
   3   C   :   -0.000034121   -0.000734676   -0.001933991
   4   C   :    0.001105320   -0.006087646   -0.004044049
   5   O   :    0.019822263   -0.007259905    0.022007649
   6   H   :    0.003896402    0.002326753   -0.001557960
   7   H   :    0.000109929    0.001806160    0.000429352
   8   H   :   -0.001563207    0.000769530   -0.000632195
   9   H   :   -0.000758892    0.000736749    0.000286432
  10   H   :   -0.000763179    0.002076854    0.000456734
  11   H   :   -0.000354975    0.001004390    0.001807712
  12   H   :   -0.000414850    0.001332791    0.000908365
  13   C   :   -0.017685510   -0.000759445   -0.019757359
  14   H   :   -0.002072168    0.000928424   -0.002018423
  15   H   :   -0.006089132    0.006287811   -0.009426580
  16   O   :   -0.007921621   -0.007554586    0.024729745
  17   C   :   -0.015863732    0.013844141   -0.013684131
  18   C   :   -0.011666655    0.023861889    0.025143929
  19   C   :    0.005188953   -0.004194902   -0.002160247
  20   C   :    0.002477551    0.002240266    0.002391722
  21   O   :   -0.002063702   -0.003203446    0.004061242
  22   H   :    0.002027371   -0.001784354   -0.000155998
  23   H   :   -0.006337680    0.002507752    0.010013326
  24   O   :    0.000927068    0.044466745   -0.024879308
  25   H   :   -0.001806598    0.000055500    0.000126709
  26   H   :    0.000013203   -0.000745267    0.001526039
  27   H   :   -0.000073843   -0.001166060    0.000057377
  28   H   :    0.000347838   -0.000207624   -0.000019561
  29   H   :    0.023406303   -0.067122275   -0.005332645

Difference to translation invariance:
           :    0.0000000001    0.0000000001    0.0000000000

Norm of the cartesian gradient     ...    0.1128260235
RMS gradient                       ...    0.0120962194
MAX gradient                       ...    0.0671222748

-------
TIMINGS
-------

Total SCF gradient time            ...       42.704 sec

One electron gradient       ....       0.370 sec  (  0.9%)
Prescreening matrices       ....       0.063 sec  (  0.1%)
Two electron gradient       ....      23.598 sec  ( 55.3%)
XC gradient                 ....      14.444 sec  ( 33.8%)
------------------------------------------------------------------------------
                         ORCA GEOMETRY RELAXATION STEP
------------------------------------------------------------------------------

Reading the OPT-File                    .... done
Getting information on internals        .... done
Copying old internal coords+grads       .... done
Making the new internal coordinates     .... (new redundants).... done
Validating the new internal coordinates .... (new redundants).... done
Calculating the B-matrix                .... done
Calculating the G,G- and P matrices     .... done
Transforming gradient to internals      .... done
Projecting the internal gradient        .... done
Number of atoms                         ....  29
Number of internal coordinates          .... 172
Current Energy                          ....  -652.823042425 Eh
Current gradient norm                   ....     0.112826024 Eh/bohr
Maximum allowed component of the step   ....  0.300
Current trust radius                    ....  0.300
Evaluating the initial hessian          ....  (Almloef) done
Projecting the Hessian                  .... done
Forming the augmented Hessian           .... done
Diagonalizing the augmented Hessian     .... done
Last element of RFO vector              ....  0.938350461
Lowest eigenvalues of augmented Hessian:
 -0.038346231  0.007929498  0.032949225  0.033113880  0.036745566
Length of the computed step             ....  0.368396925
Warning: the length of the step is outside the trust region - taking restricted step instead
The input lambda is                     ....    -0.038346
   iter:   1  x=   -0.072037  g=    1.356949 f(x)=     0.045716
   iter:   2  x=   -0.089672  g=    0.726364 f(x)=     0.012810
   iter:   3  x=   -0.092048  g=    0.579920 f(x)=     0.001378
   iter:   4  x=   -0.092081  g=    0.564144 f(x)=     0.000019
   iter:   5  x=   -0.092081  g=    0.563927 f(x)=     0.000000
   iter:   6  x=   -0.092081  g=    0.563927 f(x)=     0.000000
The output lambda is                    ....    -0.092081 (6 iterations)
The final length of the internal step   ....  0.300000000
Converting the step to cartesian space:
 Initial RMS(Int)=    0.0228747855
Transforming coordinates:
 Iter   0:  RMS(Cart)=    0.0888157899 RMS(Int)=    0.4796001396
 Iter   1:  RMS(Cart)=    0.0021349210 RMS(Int)=    0.4790497939
 Iter   2:  RMS(Cart)=    0.0001415701 RMS(Int)=    0.0000748018
 Iter   3:  RMS(Cart)=    0.0000069348 RMS(Int)=    0.0000041609
 Iter   4:  RMS(Cart)=    0.0000002824 RMS(Int)=    0.0000001643
 Iter   5:  RMS(Cart)=    0.0000000211 RMS(Int)=    0.0000000108
Imposing constraints:
[...]
  29   2.0000      -0.493010       -13.4155 
  30   2.0000      -0.465054       -12.6548 
  31   2.0000      -0.454766       -12.3748 
  32   2.0000      -0.448861       -12.2141 
  33   2.0000      -0.435548       -11.8519 
  34   2.0000      -0.427767       -11.6401 
  35   2.0000      -0.423894       -11.5347 
  36   2.0000      -0.404617       -11.0102 
  37   2.0000      -0.402405       -10.9500 
  38   2.0000      -0.378017       -10.2864 
  39   2.0000      -0.374211       -10.1828 
  40   2.0000      -0.357274        -9.7219 
  41   2.0000      -0.353187        -9.6107 
  42   2.0000      -0.351061        -9.5529 
  43   2.0000      -0.331542        -9.0217 
  44   2.0000      -0.320222        -8.7137 
  45   2.0000      -0.307656        -8.3717 
  46   2.0000      -0.297005        -8.0819 
  47   2.0000      -0.274972        -7.4824 
  48   2.0000      -0.258974        -7.0470 
  49   2.0000      -0.253935        -6.9099 
  50   2.0000      -0.234780        -6.3887 
  51   0.0000       0.047355         1.2886 
  52   0.0000       0.077440         2.1073 
  53   0.0000       0.081873         2.2279 
  54   0.0000       0.090188         2.4542 
  55   0.0000       0.099803         2.7158 
  56   0.0000       0.110814         3.0154 
  57   0.0000       0.118212         3.2167 
  58   0.0000       0.124034         3.3751 
  59   0.0000       0.139598         3.7987 
  60   0.0000       0.145531         3.9601 
  61   0.0000       0.148771         4.0483 
  62   0.0000       0.152941         4.1617 
  63   0.0000       0.156505         4.2587 
  64   0.0000       0.159816         4.3488 
  65   0.0000       0.168091         4.5740 
  66   0.0000       0.176414         4.8005 
  67   0.0000       0.189616         5.1597 
  68   0.0000       0.194868         5.3026 
  69   0.0000       0.203868         5.5475 
  70   0.0000       0.212698         5.7878 
  71   0.0000       0.226442         6.1618 
  72   0.0000       0.242601         6.6015 
  73   0.0000       0.246114         6.6971 
  74   0.0000       0.254810         6.9337 
  75   0.0000       0.267094         7.2680 
  76   0.0000       0.273890         7.4529 
  77   0.0000       0.275415         7.4944 
  78   0.0000       0.290662         7.9093 
  79   0.0000       0.300046         8.1647 
  80   0.0000       0.317920         8.6510 
  81   0.0000       0.532363        14.4863 
  82   0.0000       0.536177        14.5901 
  83   0.0000       0.543029        14.7766 
  84   0.0000       0.554651        15.0928 
  85   0.0000       0.556795        15.1512 
  86   0.0000       0.561897        15.2900 
  87   0.0000       0.574881        15.6433 
  88   0.0000       0.585990        15.9456 
  89   0.0000       0.594706        16.1828 
  90   0.0000       0.597225        16.2513 
  91   0.0000       0.611200        16.6316 
  92   0.0000       0.620625        16.8881 
  93   0.0000       0.630704        17.1623 
  94   0.0000       0.642745        17.4900 
  95   0.0000       0.648169        17.6376 
  96   0.0000       0.665675        18.1139 
  97   0.0000       0.670845        18.2546 
  98   0.0000       0.689999        18.7758 
  99   0.0000       0.694913        18.9095 
 100   0.0000       0.719726        19.5847 
 101   0.0000       0.739210        20.1149 
 102   0.0000       0.794189        21.6110 
 103   0.0000       0.815043        22.1785 
 104   0.0000       0.830288        22.5933 
 105   0.0000       0.838226        22.8093 
 106   0.0000       0.845721        23.0132 
 107   0.0000       0.850488        23.1430 
 108   0.0000       0.867503        23.6060 
 109   0.0000       0.880294        23.9540 
 110   0.0000       0.882294        24.0084 
 111   0.0000       0.891632        24.2626 
 112   0.0000       0.900022        24.4909 
 113   0.0000       0.901806        24.5394 
 114   0.0000       0.922702        25.1080 
 115   0.0000       0.928690        25.2710 
 116   0.0000       0.944342        25.6969 
 117   0.0000       0.954574        25.9753 
 118   0.0000       0.955553        26.0019 
 119   0.0000       0.960975        26.1494 
 120   0.0000       0.972605        26.4659 
 121   0.0000       0.979590        26.6560 
 122   0.0000       1.010040        27.4846 
 123   0.0000       1.015125        27.6230 
 124   0.0000       1.032783        28.1035 
 125   0.0000       1.065525        28.9944 
 126   0.0000       1.080799        29.4100 
 127   0.0000       1.101566        29.9751 
 128   0.0000       1.128329        30.7034 
 129   0.0000       1.173267        31.9262 
 130   0.0000       1.204158        32.7668 
 131   0.0000       1.233097        33.5543 
 132   0.0000       1.240686        33.7608 
 133   0.0000       1.302693        35.4481 
 134   0.0000       1.334881        36.3240 
 135   0.0000       1.350917        36.7603 
 136   0.0000       1.387161        37.7466 
 137   0.0000       1.420506        38.6539 
 138   0.0000       1.454792        39.5869 
 139   0.0000       1.492669        40.6176 
 140   0.0000       1.531751        41.6811 
 141   0.0000       1.565137        42.5895 
 142   0.0000       1.603016        43.6203 
 143   0.0000       1.668862        45.4120 
 144   0.0000       1.755801        47.7778 
 145   0.0000       1.898486        51.6604 
 146   0.0000       1.967456        53.5372 
 147   0.0000       2.020567        54.9824 
 148   0.0000       2.129739        57.9531 

                    ********************************
                    * MULLIKEN POPULATION ANALYSIS *
                    ********************************

-----------------------
MULLIKEN ATOMIC CHARGES
-----------------------
   0 C :    0.299164
   1 C :   -0.284293
   2 C :   -0.303481
   3 C :    0.000151
   4 O :   -0.500942
   5 H :    0.138986
   6 H :    0.146838
   7 H :    0.145499
   8 H :    0.141309
   9 H :    0.168983
  10 H :    0.159122
  11 H :    0.140011
  12 C :   -0.028842
  13 H :    0.128778
  14 H :    0.134939
  15 O :   -0.494149
  16 C :    0.094489
  17 C :    0.078290
  18 C :   -0.326403
  19 C :   -0.007749
  20 O :   -0.503146
  21 H :    0.156153
  22 H :    0.169704
  23 O :   -0.601814
  24 H :    0.158307
  25 H :    0.134400
  26 H :    0.148853
  27 H :    0.150066
  28 H :    0.356778
Sum of atomic charges:   -0.0000000

--------------------------------
MULLIKEN REDUCED ORBITAL CHARGES
--------------------------------
  0 C s       :     3.198383  s :     3.198383
      pz      :     0.805094  p :     2.502453
      px      :     0.696302
      py      :     1.001057
  1 C s       :     3.307576  s :     3.307576
      pz      :     0.987483  p :     2.976716
      px      :     1.039553
      py      :     0.949681
  2 C s       :     3.317469  s :     3.317469
      pz      :     0.903982  p :     2.986012
      px      :     1.088313
      py      :     0.993717
  3 C s       :     3.262871  s :     3.262871
      pz      :     0.935049  p :     2.736978
      px      :     1.064743
      py      :     0.737185
  4 O s       :     3.938205  s :     3.938205
      pz      :     1.272932  p :     4.562738
      px      :     1.768460
      py      :     1.521346
  5 H s       :     0.861014  s :     0.861014
  6 H s       :     0.853162  s :     0.853162
  7 H s       :     0.854501  s :     0.854501
  8 H s       :     0.858691  s :     0.858691
  9 H s       :     0.831017  s :     0.831017
 10 H s       :     0.840878  s :     0.840878
 11 H s       :     0.859989  s :     0.859989
 12 C s       :     3.257378  s :     3.257378
      pz      :     0.810908  p :     2.771465
      px      :     0.960447
      py      :     1.000109
 13 H s       :     0.871222  s :     0.871222
 14 H s       :     0.865061  s :     0.865061
 15 O s       :     3.930750  s :     3.930750
      pz      :     1.467179  p :     4.563399
      px      :     1.263487
      py      :     1.832733
 16 C s       :     3.257201  s :     3.257201
      pz      :     0.784487  p :     2.648311
      px      :     0.858844
      py      :     1.004980
 17 C s       :     3.249862  s :     3.249862
      pz      :     0.722158  p :     2.671848
      px      :     0.877638
      py      :     1.072052
 18 C s       :     3.324036  s :     3.324036
      pz      :     0.966094  p :     3.002367
      px      :     1.010195
      py      :     1.026078
 19 C s       :     3.263745  s :     3.263745
      pz      :     0.888582  p :     2.744005
      px      :     0.773673
      py      :     1.081750
 20 O s       :     3.947571  s :     3.947571
      pz      :     1.533212  p :     4.555576
      px      :     1.182196
      py      :     1.840167
 21 H s       :     0.843847  s :     0.843847
 22 H s       :     0.830296  s :     0.830296
 23 O s       :     3.919922  s :     3.919922
      pz      :     1.460578  p :     4.681893
      px      :     1.800121
      py      :     1.421193
 24 H s       :     0.841693  s :     0.841693
 25 H s       :     0.865600  s :     0.865600
 26 H s       :     0.851147  s :     0.851147
 27 H s       :     0.849934  s :     0.849934
 28 H s       :     0.643222  s :     0.643222


                     *******************************
                     * LOEWDIN POPULATION ANALYSIS *
                     *******************************

----------------------
LOEWDIN ATOMIC CHARGES
----------------------
   0 C :    0.181189
   1 C :   -0.234869
   2 C :   -0.217884
   3 C :   -0.023867
   4 O :   -0.301435
   5 H :    0.095177
   6 H :    0.115455
   7 H :    0.113433
   8 H :    0.114068
   9 H :    0.119787
  10 H :    0.112141
  11 H :    0.101543
  12 C :   -0.054038
  13 H :    0.098068
  14 H :    0.099717
  15 O :   -0.323890
  16 C :    0.016016
  17 C :    0.032183
  18 C :   -0.241481
  19 C :   -0.028699
  20 O :   -0.312523
  21 H :    0.112587
  22 H :    0.119937
  23 O :   -0.410119
  24 H :    0.122840
  25 H :    0.104182
  26 H :    0.105866
  27 H :    0.106263
  28 H :    0.278352

-------------------------------
LOEWDIN REDUCED ORBITAL CHARGES
-------------------------------
  0 C s       :     2.953819  s :     2.953819
      pz      :     0.928509  p :     2.864992
      px      :     0.852410
      py      :     1.084072
  1 C s       :     2.981018  s :     2.981018
      pz      :     1.077334  p :     3.253851
      px      :     1.111007
      py      :     1.065509
  2 C s       :     2.971229  s :     2.971229
      pz      :     1.030065  p :     3.246655
      px      :     1.134494
      py      :     1.082096
  3 C s       :     2.984132  s :     2.984132
      pz      :     1.035136  p :     3.039735
      px      :     1.125404
      py      :     0.879195
  4 O s       :     3.591933  s :     3.591933
      pz      :     1.344023  p :     4.709502
      px      :     1.797455
      py      :     1.568024
  5 H s       :     0.904823  s :     0.904823
  6 H s       :     0.884545  s :     0.884545
  7 H s       :     0.886567  s :     0.886567
  8 H s       :     0.885932  s :     0.885932
  9 H s       :     0.880213  s :     0.880213
 10 H s       :     0.887859  s :     0.887859
 11 H s       :     0.898457  s :     0.898457
 12 C s       :     2.976545  s :     2.976545
      pz      :     0.932537  p :     3.077493
      px      :     1.052163
      py      :     1.092793
 13 H s       :     0.901932  s :     0.901932
 14 H s       :     0.900283  s :     0.900283
 15 O s       :     3.595041  s :     3.595041
      pz      :     1.534529  p :     4.728849
      px      :     1.337903
      py      :     1.856417
 16 C s       :     2.962874  s :     2.962874
      pz      :     0.941767  p :     3.021109
      px      :     0.989619
      py      :     1.089723
 17 C s       :     2.952381  s :     2.952381
      pz      :     0.892030  p :     3.015435
      px      :     1.002561
      py      :     1.120844
 18 C s       :     2.982932  s :     2.982932
      pz      :     1.070557  p :     3.258548
      px      :     1.086338
      py      :     1.101654
 19 C s       :     2.981045  s :     2.981045
      pz      :     1.013784  p :     3.047654
      px      :     0.900171
      py      :     1.133698
 20 O s       :     3.602352  s :     3.602352
      pz      :     1.585117  p :     4.710171
      px      :     1.257691
      py      :     1.867363
 21 H s       :     0.887413  s :     0.887413
 22 H s       :     0.880063  s :     0.880063
 23 O s       :     3.609317  s :     3.609317
      pz      :     1.508305  p :     4.800802
      px      :     1.820497
      py      :     1.471999
 24 H s       :     0.877160  s :     0.877160
 25 H s       :     0.895818  s :     0.895818
 26 H s       :     0.894134  s :     0.894134
 27 H s       :     0.893737  s :     0.893737
 28 H s       :     0.721648  s :     0.721648


                      *****************************
                      * MAYER POPULATION ANALYSIS *
                      *****************************

  NA   - Mulliken gross atomic population
  ZA   - Total nuclear charge
  QA   - Mulliken gross atomic charge
  VA   - Mayer's total valence
  BVA  - Mayer's bonded valence
  FA   - Mayer's free valence

  ATOM       NA         ZA         QA         VA         BVA        FA
  0 C      5.7008     6.0000     0.2992     3.6816     3.6816     0.0000
  1 C      6.2843     6.0000    -0.2843     3.7120     3.7120     0.0000
  2 C      6.3035     6.0000    -0.3035     3.7605     3.7605    -0.0000
  3 C      5.9998     6.0000     0.0002     3.6573     3.6573    -0.0000
  4 O      8.5009     8.0000    -0.5009     1.8060     1.8060     0.0000
  5 H      0.8610     1.0000     0.1390     0.9295     0.9295     0.0000
  6 H      0.8532     1.0000     0.1468     0.9330     0.9330    -0.0000
  7 H      0.8545     1.0000     0.1455     0.9388     0.9388    -0.0000
  8 H      0.8587     1.0000     0.1413     0.9369     0.9369     0.0000
  9 H      0.8310     1.0000     0.1690     0.9336     0.9336    -0.0000
 10 H      0.8409     1.0000     0.1591     0.9249     0.9249     0.0000
 11 H      0.8600     1.0000     0.1400     0.9292     0.9292    -0.0000
 12 C      6.0288     6.0000    -0.0288     3.6372     3.6372     0.0000
 13 H      0.8712     1.0000     0.1288     0.9457     0.9457    -0.0000
 14 H      0.8651     1.0000     0.1349     0.9352     0.9352     0.0000
 15 O      8.4941     8.0000    -0.4941     1.7493     1.7493     0.0000
 16 C      5.9055     6.0000     0.0945     3.5660     3.5660     0.0000
 17 C      5.9217     6.0000     0.0783     3.6450     3.6450    -0.0000
 18 C      6.3264     6.0000    -0.3264     3.7302     3.7302     0.0000
 19 C      6.0077     6.0000    -0.0077     3.6625     3.6625     0.0000
 20 O      8.5031     8.0000    -0.5031     1.7842     1.7842     0.0000
 21 H      0.8438     1.0000     0.1562     0.9360     0.9360    -0.0000
 22 H      0.8303     1.0000     0.1697     0.9240     0.9240    -0.0000
 23 O      8.6018     8.0000    -0.6018     1.7502     1.7502     0.0000
 24 H      0.8417     1.0000     0.1583     0.9359     0.9359     0.0000
 25 H      0.8656     1.0000     0.1344     0.9411     0.9411     0.0000
 26 H      0.8511     1.0000     0.1489     0.9249     0.9249     0.0000
 27 H      0.8499     1.0000     0.1501     0.9270     0.9270    -0.0000
 28 H      0.6432     1.0000     0.3568     0.8369     0.8369     0.0000

  Mayer bond orders larger than 0.100000
B(  0-C ,  1-C ) :   0.9267 B(  0-C ,  4-O ) :   0.9423 B(  0-C ,  5-H ) :   0.9210 
B(  0-C , 15-O ) :   0.8386 B(  1-C ,  2-C ) :   0.9508 B(  1-C ,  6-H ) :   0.9332 
B(  1-C ,  7-H ) :   0.9310 B(  2-C ,  3-C ) :   0.9554 B(  2-C ,  8-H ) :   0.9448 
B(  2-C ,  9-H ) :   0.9395 B(  3-C ,  4-O ) :   0.8332 B(  3-C , 10-H ) :   0.9339 
B(  3-C , 11-H ) :   0.9400 B( 12-C , 13-H ) :   0.9031 B( 12-C , 14-H ) :   0.9293 
B( 12-C , 15-O ) :   0.8572 B( 12-C , 16-C ) :   0.8937 B( 16-C , 17-C ) :   0.8688 
B( 16-C , 20-O ) :   0.8749 B( 16-C , 21-H ) :   0.9295 B( 17-C , 18-C ) :   0.9280 
B( 17-C , 22-H ) :   0.9316 B( 17-C , 23-O ) :   0.8935 B( 18-C , 19-C ) :   0.9375 
B( 18-C , 24-H ) :   0.9413 B( 18-C , 25-H ) :   0.9400 B( 19-C , 20-O ) :   0.8500 
B( 19-C , 26-H ) :   0.9313 B( 19-C , 27-H ) :   0.9374 B( 23-O , 28-H ) :   0.7986 


-------
TIMINGS
-------

Total SCF time: 0 days 0 hours 1 min 5 sec 

Total time                  ....      65.438 sec
Sum of individual times     ....      61.600 sec  ( 94.1%)

Fock matrix formation       ....      56.787 sec  ( 86.8%)
  XC integration            ....       5.204 sec  (  9.2% of F)
    Basis function eval.    ....       1.722 sec  ( 33.1% of XC)
    Density eval.           ....       0.898 sec  ( 17.3% of XC)
    XC-Functional eval.     ....       0.375 sec  (  7.2% of XC)
    XC-Potential eval.      ....       0.953 sec  ( 18.3% of XC)
Diagonalization             ....       0.022 sec  (  0.0%)
Density matrix formation    ....       0.003 sec  (  0.0%)
Population analysis         ....       0.040 sec  (  0.1%)
Initial guess               ....       0.031 sec  (  0.0%)
Orbital Transformation      ....       0.000 sec  (  0.0%)
Orbital Orthonormalization  ....       0.008 sec  (  0.0%)
DIIS solution               ....       0.002 sec  (  0.0%)
SOSCF solution              ....       0.035 sec  (  0.1%)
Grid generation             ....       4.679 sec  (  7.2%)

-------------------------   --------------------
FINAL SINGLE POINT ENERGY      -652.851442027922
-------------------------   --------------------

                                *** OPTIMIZATION RUN DONE ***

                            ***************************************
                            *     ORCA property calculations      *
                            ***************************************

                                    ---------------------
                                    Active property flags
                                    ---------------------
   (+) Dipole Moment


------------------------------------------------------------------------------
                       ORCA ELECTRIC PROPERTIES CALCULATION
------------------------------------------------------------------------------

Dipole Moment Calculation                       ... on
Quadrupole Moment Calculation                   ... off
Polarizability Calculation                      ... off
GBWName                                         ... project_8053/ensemble_180_240.gbw
Electron density file                           ... project_8053/ensemble_180_240.scfp
The origin for moment calculation is the CENTER OF MASS  = (-43.402779, 51.772969 86.424930)

-------------
DIPOLE MOMENT
-------------
                                X             Y             Z
Electronic contribution:     -0.36282      -2.29989       0.99834
Nuclear contribution   :      0.08642       2.62944      -2.03534
                        -----------------------------------------
Total Dipole Moment    :     -0.27639       0.32955      -1.03701
                        -----------------------------------------
Magnitude (a.u.)       :      1.12267
Magnitude (Debye)      :      2.85359



--------------------
Rotational spectrum 
--------------------
 
Rotational constants in cm-1:     0.053850     0.013388     0.012407 
Rotational constants in MHz :  1614.396507   401.353972   371.937606 

 Dipole components along the rotational axes: 
x,y,z [a.u.] :     0.816077    -0.769925    -0.040193 
x,y,z [Debye]:     2.074304    -1.956995    -0.102161 

 

Timings for individual modules:

Sum of individual times         ...     1564.900 sec (=  26.082 min)
GTO integral calculation        ...        3.820 sec (=   0.064 min)   0.2 %
SCF iterations                  ...     1026.217 sec (=  17.104 min)  65.6 %
SCF Gradient evaluation         ...      527.279 sec (=   8.788 min)  33.7 %
Geometry relaxation             ...        7.585 sec (=   0.126 min)   0.5 %
                             ****ORCA TERMINATED NORMALLY****
TOTAL RUN TIME: 0 days 0 hours 26 minutes 14 seconds 824 msec
