
                                 *****************
                                 * O   R   C   A *
                                 *****************

           --- An Ab Initio, DFT and Semiempirical electronic structure package ---

                  #######################################################
                  #                        -***-                        #
                  #          Department of theory and spectroscopy      #
                  #               Directorship: Frank Neese             #
                  #        Max Planck Institute fuer Kohlenforschung    #
                  #                Kaiser Wilhelm Platz 1               #
                  #                 D-45470 Muelheim/Ruhr               #
                  #                      Germany                        #
                  #                                                     #
                  #                  All rights reserved                #
                  #                        -***-                        #
                  #######################################################


                         Program Version 4.2.0 -  RELEASE  -


 With contributions from (in alphabetic order):
   Daniel Aravena         : Magnetic Suceptibility
   Michael Atanasov       : Ab Initio Ligand Field Theory (pilot matlab implementation)
   Alexander A. Auer      : GIAO ZORA, VPT2
   Ute Becker             : Parallelization
   Giovanni Bistoni       : ED, misc. LED, open-shell LED, HFLED
   Martin Brehm           : Molecular dynamics
   Dmytro Bykov           : SCF Hessian
   Vijay G. Chilkuri      : MRCI spin determinant printing, contributions to CSF-ICE
   Dipayan Datta          : RHF DLPNO-CCSD density
   Achintya Kumar Dutta   : EOM-CC, STEOM-CC
   Dmitry Ganyushin       : Spin-Orbit,Spin-Spin,Magnetic field MRCI
   Miquel Garcia          : C-PCM Hessian, Gaussian charge scheme
   Yang Guo               : DLPNO-NEVPT2, CIM, IAO-localization
   Andreas Hansen         : Spin unrestricted coupled pair/coupled cluster methods
   Benjamin Helmich-Paris : CASSCF linear response (MC-RPA)
   Lee Huntington         : MR-EOM, pCC
   Robert Izsak           : Overlap fitted RIJCOSX, COSX-SCS-MP3, EOM
   Christian Kollmar      : KDIIS, OOCD, Brueckner-CCSD(T), CCSD density
   Simone Kossmann        : Meta GGA functionals, TD-DFT gradient, OOMP2, MP2 Hessian
   Martin Krupicka        : AUTO-CI
   Lucas Lang             : DCDCAS
   Dagmar Lenk            : GEPOL surface, SMD
   Dimitrios Liakos       : Extrapolation schemes; Compound Job, initial MDCI parallelization
   Dimitrios Manganas     : Further ROCIS development; embedding schemes
   Dimitrios Pantazis     : SARC Basis sets
   Taras Petrenko         : DFT Hessian,TD-DFT gradient, ASA, ECA, R-Raman, ABS, FL, XAS/XES, NRVS
   Peter Pinski           : DLPNO-MP2, DLPNO-MP2 Gradient
   Christoph Reimann      : Effective Core Potentials
   Marius Retegan         : Local ZFS, SOC
   Christoph Riplinger    : Optimizer, TS searches, QM/MM, DLPNO-CCSD(T), (RO)-DLPNO pert. Triples
   Tobias Risthaus        : Range-separated hybrids, TD-DFT gradient, RPA, STAB
   Michael Roemelt        : Original ROCIS implementation
   Masaaki Saitow         : Open-shell DLPNO-CCSD energy and density
   Barbara Sandhoefer     : DKH picture change effects
   Avijit Sen             : IP-ROCIS
   Kantharuban Sivalingam : CASSCF convergence, NEVPT2, FIC-MRCI
   Bernardo de Souza      : ESD, SOC TD-DFT
   Georgi Stoychev        : AutoAux, RI-MP2 NMR
   Willem Van den Heuvel  : Paramagnetic NMR
   Boris Wezisla          : Elementary symmetry handling
   Frank Wennmohs         : Technical directorship


 We gratefully acknowledge several colleagues who have allowed us to
 interface, adapt or use parts of their codes:
   Stefan Grimme, W. Hujo, H. Kruse,             : VdW corrections, initial TS optimization,
                  C. Bannwarth                     DFT functionals, gCP, sTDA/sTD-DF
   Ed Valeev, F. Pavosevic, A. Kumar             : LibInt (2-el integral package), F12 methods
   Garnet Chan, S. Sharma, J. Yang, R. Olivares  : DMRG
   Ulf Ekstrom                                   : XCFun DFT Library
   Mihaly Kallay                                 : mrcc  (arbitrary order and MRCC methods)
   Andreas Klamt, Michael Diedenhofen            : otool_cosmo (COSMO solvation model)
   Jiri Pittner, Ondrej Demel                    : Mk-CCSD
   Frank Weinhold                                : gennbo (NPA and NBO analysis)
   Christopher J. Cramer and Donald G. Truhlar   : smd solvation model
   Lars Goerigk                                  : TD-DFT with DH, B97 family of functionals
   V. Asgeirsson, H. Jonsson                     : NEB implementation
   FAccTs GmbH                                   : IRC, NEB, NEB-TS, Multilevel, MM, QM/MM, CI optimization
   S Lehtola, MJT Oliveira, MAL Marques          : LibXC Library


 Your calculation uses the libint2 library for the computation of 2-el integrals
 For citations please refer to: http://libint.valeyev.net

 Your ORCA version has been built with support for libXC version: 4.2.3
 For citations please refer to: https://tddft.org/programs/libxc/

 This ORCA versions uses:
   CBLAS   interface :  Fast vector & matrix operations
   LAPACKE interface :  Fast linear algebra routines
   SCALAPACK package :  Parallel linear algebra routines


----- Orbital basis set information -----
Your calculation utilizes the basis: 6-31G
   H-He, Li-Ne : W. J. Hehre, R. Ditchfield and J.A. Pople, J. Chem. Phys. 56, 2257 (1972).
                 Note: He and Ne are unpublished basis sets taken from the Gaussian program.
                 Note: Li and B from J. D. Dill and J. A. Pople, J. Chem. Phys. 62, 2921 (1975).
   Na - Ar     : M. M. Francl, W. J. Pietro, W. J. Hehre, J. S. Binkley, M. S. Gordon, 
                 D. J. DeFrees and J. A. Pople, J. Chem. Phys. 77, 3654 (1982).
   K - Zn      : V. A. Rassolov, J. A. Pople, M. A. Ratner, and T. L. Windus, J. Chem. Phys. 109, 1223 (1998).

================================================================================
                                        WARNINGS
                       Please study these warnings very carefully!
================================================================================


WARNING: Geometry Optimization
  ===> : Switching off AutoStart
         For restart on a previous wavefunction, please use MOREAD

INFO   : the flag for use of LIBINT has been found!

================================================================================
                                       INPUT FILE
================================================================================
NAME = project_8053/ensemble_225_255.inp
|  1> # Test redundant internal optimization
|  2> #
|  3> ! RKS B3LYP  Opt TightSCF SmallPrint
|  4> 
|  5> %basis
|  6>         Basis "6-31G"
|  7> end
|  8> 
|  9> %geom
| 10> Constraints
| 11> { D 4  0  15  12  225.0   C } # D for Dihedral angle
| 12> { D 0  15  12  16  255.0   C } # D for Dihedral angle
| 13> { D 0  4  3  2   C } # D for Dihedral angle
| 14> { D 4  3  2  1   C } # D for Dihedral angle
| 15> { D 3  2  1  0   C } # D for Dihedral angle
| 16> { D 2  1  0  4   C } # D for Dihedral angle
| 17> { D 1  0  4  3   C } # D for Dihedral angle
| 18> { D 16  20  19  18   C } # D for Dihedral angle
| 19> { D 20  19  18  17   C } # D for Dihedral angle
| 20> { D 19  18  17  16   C } # D for Dihedral angle
| 21> { D 18  17  16  20   C } # D for Dihedral angle
| 22> { D 17  16  20  19   C } # D for Dihedral angle
| 23> { D 15  12  16  20   C } # D for Dihedral angle
| 24> end
| 25> end
| 26> 
| 27> 
| 28> #%pal 
| 29> #nprocs 8
| 30> #end
| 31> 
| 32> * xyz 0 1
| 33> C  -21.048   26.222   46.251
| 34> C  -20.361   27.558   45.944
| 35> C  -20.329   28.222   47.341
| 36> C  -20.110   27.022   48.296
| 37> O  -20.473   25.807   47.535
| 38> H  -20.833   25.428   45.533
| 39> H  -19.344   27.382   45.576
| 40> H  -20.898   28.157   45.201
| 41> H  -19.543   28.978   47.434
| 42> H  -21.289   28.710   47.548
| 43> H  -20.733   27.082   49.195
| 44> H  -19.064   26.913   48.597
| 45> C  -23.415   25.773   45.218
| 46> H  -22.782   25.080   44.650
| 47> H  -24.269   25.209   45.617
| 48> O  -22.586   26.394   46.375
| 49> C  -23.972   26.842   44.237
| 50> C  -24.878   26.206   43.177
| 51> C  -26.197   26.019   43.964
| 52> C  -26.229   27.256   44.896
| 53> O  -24.848   27.781   44.945
| 54> H  -23.141   27.422   43.831
| 55> H  -25.023   26.898   42.340
| 56> O  -24.318   24.871   42.616
| 57> H  -27.076   25.964   43.313
| 58> H  -26.157   25.094   44.552
| 59> H  -26.555   27.007   45.912
| 60> H  -26.865   28.056   44.506
| 61> H  -24.166   24.160   43.436
| 62> *
| 63> 
| 64>                          ****END OF INPUT****
================================================================================

                       *****************************
                       * Geometry Optimization Run *
                       *****************************

Geometry optimization settings:
Update method            Update   .... BFGS
Choice of coordinates    CoordSys .... Z-matrix Internals
Initial Hessian          InHess   .... Almoef's Model

Convergence Tolerances:
Energy Change            TolE     ....  5.0000e-06 Eh
Max. Gradient            TolMAXG  ....  3.0000e-04 Eh/bohr
RMS Gradient             TolRMSG  ....  1.0000e-04 Eh/bohr
Max. Displacement        TolMAXD  ....  4.0000e-03 bohr
RMS Displacement         TolRMSD  ....  2.0000e-03 bohr
Strict Convergence                ....  False
------------------------------------------------------------------------------
                        ORCA OPTIMIZATION COORDINATE SETUP
------------------------------------------------------------------------------

The optimization will be done in new redundant internal coordinates
Making redundant internal coordinates   ...  (new redundants) done
Evaluating the initial hessian          ...  (Almloef) done
Evaluating the coordinates              ...  done
Calculating the B-matrix                .... done
Calculating the G-matrix                .... done
Diagonalizing the G-matrix              .... done
Imposing constraints:
 Iter   0:  RMS(Cart)=    0.0002323637 RMS(Int)=    0.0000799708
 Iter   1:  RMS(Cart)=    0.0001140747 RMS(Int)=    0.0000433530
 Iter   2:  RMS(Cart)=    0.0000591087 RMS(Int)=    0.0000259329
 Iter   3:  RMS(Cart)=    0.0000327969 RMS(Int)=    0.0000168246
 Iter   4:  RMS(Cart)=    0.0000195349 RMS(Int)=    0.0000115223
 Iter   5:  RMS(Cart)=    0.0000123519 RMS(Int)=    0.0000081927
 Iter   6:  RMS(Cart)=    0.0000081526 RMS(Int)=    0.0000060334
 Iter   7:  RMS(Cart)=    0.0000055370 RMS(Int)=    0.0000046343
 Iter   8:  RMS(Cart)=    0.0000038350 RMS(Int)=    0.0000037462
 Iter   9:  RMS(Cart)=    0.0000026976 RMS(Int)=    0.0000031962
 Iter  10:  RMS(Cart)=    0.0000019268 RMS(Int)=    0.0000028588
 Iter  11:  RMS(Cart)=    0.0000014017 RMS(Int)=    0.0000026474
 Iter  12:  RMS(Cart)=    0.0000010447 RMS(Int)=    0.0000025068
 Iter  13:  RMS(Cart)=    0.0000008041 RMS(Int)=    0.0000024049
 Iter  14:  RMS(Cart)=    0.0000006440 RMS(Int)=    0.0000023239
 Iter  15:  RMS(Cart)=    0.0000005387 RMS(Int)=    0.0000022546
 Iter  16:  RMS(Cart)=    0.0000004696 RMS(Int)=    0.0000021920
 Iter  17:  RMS(Cart)=    0.0000004238 RMS(Int)=    0.0000021337
 Iter  18:  RMS(Cart)=    0.0000003924 RMS(Int)=    0.0000020782
 Iter  19:  RMS(Cart)=    0.0000003697 RMS(Int)=    0.0000020250
 Iter  20:  RMS(Cart)=    0.0000003525 RMS(Int)=    0.0000019736
 Iter  21:  RMS(Cart)=    0.0000003386 RMS(Int)=    0.0000019238
 Iter  22:  RMS(Cart)=    0.0000003267 RMS(Int)=    0.0000018756
 Iter  23:  RMS(Cart)=    0.0000003163 RMS(Int)=    0.0000018288
 Iter  24:  RMS(Cart)=    0.0000003069 RMS(Int)=    0.0000017834
 Iter  25:  RMS(Cart)=    0.0000002981 RMS(Int)=    0.0000017393
 Iter  26:  RMS(Cart)=    0.0000002899 RMS(Int)=    0.0000016964
 Iter  27:  RMS(Cart)=    0.0000002821 RMS(Int)=    0.0000016548
 Iter  28:  RMS(Cart)=    0.0000002746 RMS(Int)=    0.0000016144
 Iter  29:  RMS(Cart)=    0.0000002674 RMS(Int)=    0.0000015750
 Iter  30:  RMS(Cart)=    0.0000002605 RMS(Int)=    0.0000015368
 Iter  31:  RMS(Cart)=    0.0000002538 RMS(Int)=    0.0000014997
 Iter  32:  RMS(Cart)=    0.0000002474 RMS(Int)=    0.0000014636
 Iter  33:  RMS(Cart)=    0.0000002411 RMS(Int)=    0.0000014285
 Iter  34:  RMS(Cart)=    0.0000002351 RMS(Int)=    0.0000013944
 Iter  35:  RMS(Cart)=    0.0000002292 RMS(Int)=    0.0000013612
 Iter  36:  RMS(Cart)=    0.0000002235 RMS(Int)=    0.0000013289
 Iter  37:  RMS(Cart)=    0.0000002179 RMS(Int)=    0.0000012975
 Iter  38:  RMS(Cart)=    0.0000002125 RMS(Int)=    0.0000012670
 Iter  39:  RMS(Cart)=    0.0000002073 RMS(Int)=    0.0000012373
 Iter  40:  RMS(Cart)=    0.0000002022 RMS(Int)=    0.0000012084
 Iter  41:  RMS(Cart)=    0.0000001972 RMS(Int)=    0.0000011803
 Iter  42:  RMS(Cart)=    0.0000001924 RMS(Int)=    0.0000011529
 Iter  43:  RMS(Cart)=    0.0000001877 RMS(Int)=    0.0000011263
 Iter  44:  RMS(Cart)=    0.0000001831 RMS(Int)=    0.0000011004
 Iter  45:  RMS(Cart)=    0.0000001787 RMS(Int)=    0.0000010752
 Iter  46:  RMS(Cart)=    0.0000001744 RMS(Int)=    0.0000010507
 Iter  47:  RMS(Cart)=    0.0000001702 RMS(Int)=    0.0000010268
 Iter  48:  RMS(Cart)=    0.0000001661 RMS(Int)=    0.0000010035
 Iter  49:  RMS(Cart)=    0.0000001621 RMS(Int)=    0.0000009808
 Iter  50:  RMS(Cart)=    0.0000001582 RMS(Int)=    0.0000009588
 Iter  51:  RMS(Cart)=    0.0000001545 RMS(Int)=    0.0000009373
 Iter  52:  RMS(Cart)=    0.0000001508 RMS(Int)=    0.0000009164
 Iter  53:  RMS(Cart)=    0.0000001472 RMS(Int)=    0.0000008960
 Iter  54:  RMS(Cart)=    0.0000001437 RMS(Int)=    0.0000008762
 Iter  55:  RMS(Cart)=    0.0000001404 RMS(Int)=    0.0000008568
 Iter  56:  RMS(Cart)=    0.0000001371 RMS(Int)=    0.0000008380
 Iter  57:  RMS(Cart)=    0.0000001339 RMS(Int)=    0.0000008196
 Iter  58:  RMS(Cart)=    0.0000001307 RMS(Int)=    0.0000008017
 Iter  59:  RMS(Cart)=    0.0000001277 RMS(Int)=    0.0000007843
 Iter  60:  RMS(Cart)=    0.0000001247 RMS(Int)=    0.0000007673
 Iter  61:  RMS(Cart)=    0.0000001218 RMS(Int)=    0.0000007508
 Iter  62:  RMS(Cart)=    0.0000001190 RMS(Int)=    0.0000007346
 Iter  63:  RMS(Cart)=    0.0000001163 RMS(Int)=    0.0000007189
 Iter  64:  RMS(Cart)=    0.0000001136 RMS(Int)=    0.0000007035
 Iter  65:  RMS(Cart)=    0.0000001110 RMS(Int)=    0.0000006886
 Iter  66:  RMS(Cart)=    0.0000001085 RMS(Int)=    0.0000006740
 Iter  67:  RMS(Cart)=    0.0000001060 RMS(Int)=    0.0000006598
 Iter  68:  RMS(Cart)=    0.0000001036 RMS(Int)=    0.0000006459
 Iter  69:  RMS(Cart)=    0.0000001012 RMS(Int)=    0.0000006324
 Iter  70:  RMS(Cart)=    0.0000000990 RMS(Int)=    0.0000006192
 Iter  71:  RMS(Cart)=    0.0000000967 RMS(Int)=    0.0000006064
 Iter  72:  RMS(Cart)=    0.0000000945 RMS(Int)=    0.0000005938
 Iter  73:  RMS(Cart)=    0.0000000924 RMS(Int)=    0.0000005816
 Iter  74:  RMS(Cart)=    0.0000000904 RMS(Int)=    0.0000005696
 Iter  75:  RMS(Cart)=    0.0000000883 RMS(Int)=    0.0000005580
 Iter  76:  RMS(Cart)=    0.0000000864 RMS(Int)=    0.0000005466
 Iter  77:  RMS(Cart)=    0.0000000845 RMS(Int)=    0.0000005355
 Iter  78:  RMS(Cart)=    0.0000000826 RMS(Int)=    0.0000005247
 Iter  79:  RMS(Cart)=    0.0000000808 RMS(Int)=    0.0000005141
 Iter  80:  RMS(Cart)=    0.0000000790 RMS(Int)=    0.0000005038
 Iter  81:  RMS(Cart)=    0.0000000772 RMS(Int)=    0.0000004937
 Iter  82:  RMS(Cart)=    0.0000000756 RMS(Int)=    0.0000004839
 Iter  83:  RMS(Cart)=    0.0000000739 RMS(Int)=    0.0000004743
 Iter  84:  RMS(Cart)=    0.0000000723 RMS(Int)=    0.0000004649
 Iter  85:  RMS(Cart)=    0.0000000707 RMS(Int)=    0.0000004558
 Iter  86:  RMS(Cart)=    0.0000000692 RMS(Int)=    0.0000004468
 Iter  87:  RMS(Cart)=    0.0000000677 RMS(Int)=    0.0000004381
 Iter  88:  RMS(Cart)=    0.0000000662 RMS(Int)=    0.0000004296
 Iter  89:  RMS(Cart)=    0.0000000648 RMS(Int)=    0.0000004213
 Iter  90:  RMS(Cart)=    0.0000000634 RMS(Int)=    0.0000004131
 Iter  91:  RMS(Cart)=    0.0000000621 RMS(Int)=    0.0000004052
 Iter  92:  RMS(Cart)=    0.0000000607 RMS(Int)=    0.0000003974
 Iter  93:  RMS(Cart)=    0.0000000594 RMS(Int)=    0.0000003899
 Iter  94:  RMS(Cart)=    0.0000000582 RMS(Int)=    0.0000003825
 Iter  95:  RMS(Cart)=    0.0000000569 RMS(Int)=    0.0000003752
 Iter  96:  RMS(Cart)=    0.0000000557 RMS(Int)=    0.0000003681
 Iter  97:  RMS(Cart)=    0.0000000546 RMS(Int)=    0.0000003612
 Iter  98:  RMS(Cart)=    0.0000000534 RMS(Int)=    0.0000003545
 Iter  99:  RMS(Cart)=    0.0000000523 RMS(Int)=    0.0000003479
 RMS(Cart) too big - taking linear step, building new B-matrix and trying again
Imposing constraints:
 Iter   0:  RMS(Cart)=    0.0001140769 RMS(Int)=    0.0000433527
 Iter   1:  RMS(Cart)=    0.0000591099 RMS(Int)=    0.0000259323
 Iter   2:  RMS(Cart)=    0.0000327975 RMS(Int)=    0.0000168240
 Iter   3:  RMS(Cart)=    0.0000195351 RMS(Int)=    0.0000115216
 Iter   4:  RMS(Cart)=    0.0000123520 RMS(Int)=    0.0000081921
 Iter   5:  RMS(Cart)=    0.0000081527 RMS(Int)=    0.0000060328
 Iter   6:  RMS(Cart)=    0.0000055371 RMS(Int)=    0.0000046338
 Iter   7:  RMS(Cart)=    0.0000038350 RMS(Int)=    0.0000037457
 Iter   8:  RMS(Cart)=    0.0000026977 RMS(Int)=    0.0000031956
 Iter   9:  RMS(Cart)=    0.0000019268 RMS(Int)=    0.0000028582
 Iter  10:  RMS(Cart)=    0.0000014017 RMS(Int)=    0.0000026468
 Iter  11:  RMS(Cart)=    0.0000010447 RMS(Int)=    0.0000025062
 Iter  12:  RMS(Cart)=    0.0000008041 RMS(Int)=    0.0000024043
 Iter  13:  RMS(Cart)=    0.0000006439 RMS(Int)=    0.0000023234
 Iter  14:  RMS(Cart)=    0.0000005386 RMS(Int)=    0.0000022541
 Iter  15:  RMS(Cart)=    0.0000004695 RMS(Int)=    0.0000021915
 Iter  16:  RMS(Cart)=    0.0000004237 RMS(Int)=    0.0000021332
 Iter  17:  RMS(Cart)=    0.0000003922 RMS(Int)=    0.0000020777
 Iter  18:  RMS(Cart)=    0.0000003696 RMS(Int)=    0.0000020245
 Iter  19:  RMS(Cart)=    0.0000003523 RMS(Int)=    0.0000019731
 Iter  20:  RMS(Cart)=    0.0000003384 RMS(Int)=    0.0000019234
 Iter  21:  RMS(Cart)=    0.0000003266 RMS(Int)=    0.0000018752
 Iter  22:  RMS(Cart)=    0.0000003162 RMS(Int)=    0.0000018284
 Iter  23:  RMS(Cart)=    0.0000003067 RMS(Int)=    0.0000017830
 Iter  24:  RMS(Cart)=    0.0000002979 RMS(Int)=    0.0000017389
 Iter  25:  RMS(Cart)=    0.0000002897 RMS(Int)=    0.0000016960
 Iter  26:  RMS(Cart)=    0.0000002819 RMS(Int)=    0.0000016544
 Iter  27:  RMS(Cart)=    0.0000002745 RMS(Int)=    0.0000016140
 Iter  28:  RMS(Cart)=    0.0000002673 RMS(Int)=    0.0000015747
 Iter  29:  RMS(Cart)=    0.0000002604 RMS(Int)=    0.0000015365
 Iter  30:  RMS(Cart)=    0.0000002537 RMS(Int)=    0.0000014993
 Iter  31:  RMS(Cart)=    0.0000002473 RMS(Int)=    0.0000014632
 Iter  32:  RMS(Cart)=    0.0000002410 RMS(Int)=    0.0000014281
 Iter  33:  RMS(Cart)=    0.0000002349 RMS(Int)=    0.0000013940
 Iter  34:  RMS(Cart)=    0.0000002291 RMS(Int)=    0.0000013608
 Iter  35:  RMS(Cart)=    0.0000002233 RMS(Int)=    0.0000013286
 Iter  36:  RMS(Cart)=    0.0000002178 RMS(Int)=    0.0000012972
 Iter  37:  RMS(Cart)=    0.0000002124 RMS(Int)=    0.0000012667
 Iter  38:  RMS(Cart)=    0.0000002071 RMS(Int)=    0.0000012370
 Iter  39:  RMS(Cart)=    0.0000002020 RMS(Int)=    0.0000012081
 Iter  40:  RMS(Cart)=    0.0000001971 RMS(Int)=    0.0000011800
 Iter  41:  RMS(Cart)=    0.0000001923 RMS(Int)=    0.0000011527
 Iter  42:  RMS(Cart)=    0.0000001876 RMS(Int)=    0.0000011260
 Iter  43:  RMS(Cart)=    0.0000001830 RMS(Int)=    0.0000011001
 Iter  44:  RMS(Cart)=    0.0000001786 RMS(Int)=    0.0000010749
 Iter  45:  RMS(Cart)=    0.0000001743 RMS(Int)=    0.0000010504
 Iter  46:  RMS(Cart)=    0.0000001701 RMS(Int)=    0.0000010265
 Iter  47:  RMS(Cart)=    0.0000001660 RMS(Int)=    0.0000010032
 Iter  48:  RMS(Cart)=    0.0000001620 RMS(Int)=    0.0000009806
CONVERGED
Small eigenvalue found = 8.659e-03
Small eigenvalue found = 1.228e-02
Small eigenvalue found = 1.702e-02
Small eigenvalue found = 2.889e-02
The first mode is                       ....   91
The number of degrees of freedom        ....   81
Storing new coordinates                 .... done

    -----------------------------------------------------------------
                    Redundant Internal Coordinates


    -----------------------------------------------------------------
         Definition                    Initial Value    Approx d2E/dq
    -----------------------------------------------------------------
      1. B(C   1,C   0)                  1.5333         0.369027   
      2. B(C   2,C   1)                  1.5471         0.350825   
      3. B(C   3,C   2)                  1.5492         0.348147   
      4. B(O   4,C   0)                  1.4668         0.422031   
      5. B(O   4,C   3)                  1.4789         0.403699   
      6. B(H   5,C   0)                  1.0919         0.357632   
      7. B(H   6,C   1)                  1.0958         0.352561   
      8. B(H   7,C   1)                  1.0951         0.353431   
      9. B(H   8,C   2)                  1.0945         0.354166   
     10. B(H   9,C   2)                  1.0966         0.351438   
     11. B(H  10,C   3)                  1.0954         0.353010   
     12. B(H  11,C   3)                  1.0939         0.354989   
     13. B(H  13,C  12)                  1.0971         0.350868   
     14. B(H  14,C  12)                  1.0985         0.349081   
     15. B(O  15,C   0)                  1.5525         0.307993   
     16. B(O  15,C  12)                  1.5529         0.307583   
     17. B(C  16,C  12)                  1.5541         0.341864   
     18. B(C  17,C  16)                  1.5326         0.369993   
     19. B(C  18,C  17)                  1.5473         0.350587   
     20. B(C  19,C  18)                  1.5491         0.348217   
     21. B(O  20,C  16)                  1.4664         0.422636   
     22. B(O  20,C  19)                  1.4782         0.404667   
     23. B(H  21,C  16)                  1.0917         0.357865   
     24. B(H  22,C  17)                  1.0957         0.352697   
     25. B(O  23,C  17)                  1.5526         0.307941   
     26. B(H  24,C  18)                  1.0952         0.353284   
     27. B(H  25,C  18)                  1.0968         0.351217   
     28. B(H  26,C  19)                  1.0957         0.352653   
     29. B(H  27,C  19)                  1.0939         0.354990   
     30. B(H  28,O  23)                  1.0959         0.315592   
     31. A(O   4,C   0,H   5)          107.0188         0.328541   
     32. A(C   1,C   0,O  15)          111.3042         0.348740   
     33. A(C   1,C   0,O   4)          104.2499         0.367935   
     34. A(O   4,C   0,O  15)          110.4728         0.354548   
     35. A(C   1,C   0,H   5)          114.4393         0.323302   
     36. A(H   5,C   0,O  15)          109.1558         0.312058   
     37. A(C   0,C   1,C   2)          101.6788         0.358729   
     38. A(C   2,C   1,H   7)          112.8327         0.320016   
     39. A(C   2,C   1,H   6)          110.6705         0.319888   
     40. A(C   0,C   1,H   6)          110.0679         0.322546   
     41. A(H   6,C   1,H   7)          108.3680         0.289027   
     42. A(C   0,C   1,H   7)          113.1245         0.322677   
     43. A(C   1,C   2,H   8)          112.8315         0.320125   
     44. A(C   1,C   2,C   3)          103.1277         0.355196   
     45. A(C   1,C   2,H   9)          110.0797         0.319721   
     46. A(C   3,C   2,H   9)          110.6149         0.319321   
     47. A(C   3,C   2,H   8)          112.4035         0.319725   
     48. A(H   8,C   2,H   9)          107.7730         0.288977   
     49. A(O   4,C   3,H  10)          109.1299         0.325449   
     50. A(C   2,C   3,H  10)          112.5254         0.319554   
     51. A(C   2,C   3,O   4)          106.5272         0.361529   
     52. A(O   4,C   3,H  11)          107.1238         0.325748   
     53. A(H  10,C   3,H  11)          108.8727         0.289284   
     54. A(C   2,C   3,H  11)          112.4568         0.319846   
     55. A(C   0,O   4,C   3)          108.3136         0.371320   
     56. A(H  14,C  12,C  16)          107.7005         0.318025   
     57. A(H  13,C  12,H  14)          108.1985         0.288250   
     58. A(H  13,C  12,O  15)          109.2921         0.311029   
     59. A(H  14,C  12,O  15)          110.4673         0.310772   
     60. A(O  15,C  12,C  16)          112.7403         0.344207   
     61. A(H  13,C  12,C  16)          108.3154         0.318290   
     62. A(C   0,O  15,C  12)          115.1523         0.336200   
     63. A(C  12,C  16,C  17)          111.2853         0.357312   
     64. A(C  12,C  16,O  20)          110.4741         0.363239   
     65. A(C  17,C  16,O  20)          104.2723         0.368191   
     66. A(C  12,C  16,H  21)          109.1083         0.319317   
     67. A(C  17,C  16,H  21)          114.4089         0.323476   
     68. A(O  20,C  16,H  21)          107.1009         0.328654   
     69. A(C  16,C  17,C  18)          101.6707         0.358847   
     70. A(C  16,C  17,H  22)          110.1509         0.322705   
     71. A(C  18,C  17,H  22)          110.6140         0.319872   
     72. A(C  16,C  17,O  23)          113.1729         0.348884   
     73. A(C  18,C  17,O  23)          112.7894         0.345735   
     74. A(H  22,C  17,O  23)          108.3470         0.311349   
     75. A(C  17,C  18,C  19)          103.1276         0.355168   
     76. A(C  17,C  18,H  24)          112.8243         0.319959   
     77. A(C  19,C  18,H  24)          112.4038         0.319605   
     78. A(C  17,C  18,H  25)          110.0911         0.319653   
     79. A(C  19,C  18,H  25)          110.5882         0.319299   
     80. A(H  24,C  18,H  25)          107.7934         0.288835   
     81. A(C  18,C  19,O  20)          106.5130         0.361689   
     82. A(C  18,C  19,H  26)          112.4918         0.319512   
     83. A(O  20,C  19,H  26)          109.1434         0.325523   
     84. A(C  18,C  19,H  27)          112.4263         0.319857   
     85. A(O  20,C  19,H  27)          107.1725         0.325876   
     86. A(H  26,C  19,H  27)          108.8933         0.289238   
     87. A(C  16,O  20,C  19)          108.3395         0.371565   
     88. A(C  17,O  23,H  28)          109.7256         0.303298   
     89. D(H   7,C   1,C   0,H   5)     82.1527         0.010890   
     90. D(C   2,C   1,C   0,O  15)     79.0879         0.010890   
     91. D(H   7,C   1,C   0,O  15)    -42.1863         0.010890   
     92. D(H   6,C   1,C   0,O   4)     77.3252         0.010890   
     93. D(H   6,C   1,C   0,O  15)   -163.5724         0.010890   
     94. D(H   6,C   1,C   0,H   5)    -39.2334         0.010890   
     95. D(H   7,C   1,C   0,O   4)   -161.2888         0.010890   
     96. D(C   2,C   1,C   0,O   4)    -40.0146         0.010890 C 
     97. D(C   2,C   1,C   0,H   5)   -156.5731         0.010890   
     98. D(H   9,C   2,C   1,H   6)    160.0777         0.009912   
     99. D(H   8,C   2,C   1,C   0)    156.5478         0.009912   
    100. D(H   8,C   2,C   1,H   6)     39.6448         0.009912   
    101. D(C   3,C   2,C   1,C   0)     35.0268         0.009912 C 
    102. D(H   8,C   2,C   1,H   7)    -81.9751         0.009912   
    103. D(H   9,C   2,C   1,C   0)    -83.0194         0.009912   
    104. D(C   3,C   2,C   1,H   6)    -81.8761         0.009912   
    105. D(H   9,C   2,C   1,H   7)     38.4577         0.009912   
    106. D(C   3,C   2,C   1,H   7)    156.5039         0.009912   
    107. D(H  11,C   3,C   2,H   9)   -143.4627         0.009774   
    108. D(O   4,C   3,C   2,H   8)   -140.0067         0.009774   
    109. D(O   4,C   3,C   2,H   9)     99.4740         0.009774   
    110. D(H  10,C   3,C   2,C   1)   -137.7432         0.009774   
    111. D(H  10,C   3,C   2,H   8)    100.4467         0.009774   
    112. D(H  10,C   3,C   2,H   9)    -20.0725         0.009774   
    113. D(H  11,C   3,C   2,C   1)     98.8666         0.009774   
    114. D(O   4,C   3,C   2,C   1)    -18.1967         0.009774 C 
    115. D(H  11,C   3,C   2,H   8)    -22.9434         0.009774   
    116. D(C   3,O   4,C   0,C   1)     29.5919         0.014035 C 
    117. D(C   3,O   4,C   0,H   5)    151.2029         0.014035   
    118. D(C   3,O   4,C   0,O  15)    -90.0740         0.014035   
    119. D(C   0,O   4,C   3,C   2)     -6.8730         0.012866 C 
    120. D(C   0,O   4,C   3,H  10)    114.8547         0.012866   
    121. D(C   0,O   4,C   3,H  11)   -127.4271         0.012866   
    122. D(C   0,O  15,C  12,C  16)   -105.0000         0.007775 C 
    123. D(C  12,O  15,C   0,O   4)   -135.0000         0.007793 C 
    124. D(C  12,O  15,C   0,H   5)    -17.5858         0.007793   
    125. D(C   0,O  15,C  12,H  14)    134.4482         0.007775   
    126. D(C   0,O  15,C  12,H  13)     15.5121         0.007775   
    127. D(C  12,O  15,C   0,C   1)    109.6839         0.007793   
    128. D(C  17,C  16,C  12,H  13)     63.6040         0.009454   
    129. D(H  21,C  16,C  12,H  14)    179.6175         0.009454   
    130. D(C  17,C  16,C  12,O  15)   -175.3259         0.009454   
    131. D(O  20,C  16,C  12,H  13)    178.9370         0.009454   
    132. D(O  20,C  16,C  12,H  14)     62.1312         0.009454   
    133. D(O  20,C  16,C  12,O  15)    -59.9928         0.009454 C 
    134. D(C  17,C  16,C  12,H  14)    -53.2018         0.009454   
    135. D(H  21,C  16,C  12,H  13)    -63.5767         0.009454   
    136. D(H  21,C  16,C  12,O  15)     57.4935         0.009454   
    137. D(C  18,C  17,C  16,C  12)     79.1299         0.010943   
    138. D(C  18,C  17,C  16,O  20)    -39.9777         0.010943 C 
    139. D(C  18,C  17,C  16,H  21)   -156.6342         0.010943   
    140. D(H  22,C  17,C  16,C  12)   -163.5642         0.010943   
    141. D(H  22,C  17,C  16,O  20)     77.3282         0.010943   
    142. D(H  22,C  17,C  16,H  21)    -39.3284         0.010943   
    143. D(O  23,C  17,C  16,C  12)    -42.1117         0.010943   
    144. D(O  23,C  17,C  16,O  20)   -161.2192         0.010943   
    145. D(O  23,C  17,C  16,H  21)     82.1242         0.010943   
    146. D(H  24,C  18,C  17,O  23)    -81.9683         0.009900   
    147. D(C  19,C  18,C  17,H  22)    -81.9641         0.009900   
    148. D(C  19,C  18,C  17,O  23)    156.5143         0.009900   
    149. D(H  24,C  18,C  17,C  16)    156.5235         0.009900   
    150. D(C  19,C  18,C  17,C  16)     35.0061         0.009900 C 
    151. D(H  24,C  18,C  17,H  22)     39.5534         0.009900   
    152. D(H  25,C  18,C  17,C  16)    -83.0144         0.009900   
    153. D(H  25,C  18,C  17,H  22)    160.0155         0.009900   
    154. D(H  25,C  18,C  17,O  23)     38.4939         0.009900   
    155. D(H  27,C  19,C  18,H  25)   -143.4291         0.009777   
    156. D(O  20,C  19,C  18,H  24)   -139.9993         0.009777   
    157. D(O  20,C  19,C  18,H  25)     99.4738         0.009777   
    158. D(H  26,C  19,C  18,C  17)   -137.7324         0.009777   
    159. D(H  26,C  19,C  18,H  24)    100.4661         0.009777   
    160. D(H  26,C  19,C  18,H  25)    -20.0608         0.009777   
    161. D(H  27,C  19,C  18,C  17)     98.8992         0.009777   
    162. D(O  20,C  19,C  18,C  17)    -18.1978         0.009777 C 
    163. D(H  27,C  19,C  18,H  24)    -22.9022         0.009777   
    164. D(C  19,O  20,C  16,C  12)    -90.0915         0.014075   
    165. D(C  19,O  20,C  16,C  17)     29.5656         0.014075 C 
    166. D(C  19,O  20,C  16,H  21)    151.1930         0.014075   
    167. D(C  16,O  20,C  19,C  18)     -6.8446         0.012926 C 
    168. D(C  16,O  20,C  19,H  26)    114.8422         0.012926   
    169. D(C  16,O  20,C  19,H  27)   -127.3811         0.012926   
    170. D(H  28,O  23,C  17,C  16)     57.6481         0.007791   
    171. D(H  28,O  23,C  17,C  18)    -57.0924         0.007791   
    172. D(H  28,O  23,C  17,H  22)   -179.8896         0.007791   
    -----------------------------------------------------------------

Number of atoms                         .... 29
Number of degrees of freedom            .... 172

         *************************************************************
         *                GEOMETRY OPTIMIZATION CYCLE   1            *
         *************************************************************
---------------------------------
CARTESIAN COORDINATES (ANGSTROEM)
---------------------------------
  C    -21.048003   26.222120   46.250839
  C    -20.361348   27.558336   45.944024
  C    -20.329241   28.222013   47.341173
  C    -20.109811   27.021841   48.295858
  O    -20.472686   25.806937   47.534639
  H    -20.832962   25.428324   45.532625
  H    -19.344376   27.382642   45.575802
  H    -20.898610   28.157392   45.201258
  H    -19.543387   28.978161   47.434208
  H    -21.289309   28.709758   47.548458
  H    -20.732663   27.081499   49.194983
  H    -19.063733   26.912996   48.596646
  C    -23.415089   25.772761   45.218191
  H    -22.782167   25.079763   44.650102
  H    -24.269044   25.208764   45.617289
  O    -22.586020   26.393740   46.375153
  C    -23.971835   26.841746   44.237030
  C    -24.877876   26.205816   43.177033
  C    -26.196964   26.019167   43.963963
  C    -26.228791   27.256270   44.895836
  O    -24.847685   27.781003   44.944880
  H    -23.140693   27.421553   43.831045
  H    -25.022683   26.897758   42.339951
  O    -24.318097   24.870650   42.616207
  H    -27.075929   25.964275   43.312907
  H    -26.157187   25.094221   44.552062
  H    -26.554912   27.007436   45.911838
  H    -26.864606   28.056355   44.505710
  H    -24.166293   24.159704   43.436290

----------------------------
CARTESIAN COORDINATES (A.U.)
----------------------------
  NO LB      ZA    FRAG     MASS         X           Y           Z
   0 C     6.0000    0    12.011  -39.774962   49.552625   87.401419
   1 C     6.0000    0    12.011  -38.477372   52.077708   86.821623
   2 C     6.0000    0    12.011  -38.416697   53.331876   89.461851
   3 C     6.0000    0    12.011  -38.002034   51.063878   91.265945
   4 O     8.0000    0    15.999  -38.687769   48.768043   89.827450
   5 H     1.0000    0     1.008  -39.368592   48.052568   86.044192
   6 H     1.0000    0     1.008  -36.555572   51.745695   86.125784
   7 H     1.0000    0     1.008  -39.492649   53.209760   85.417999
   8 H     1.0000    0     1.008  -36.931649   54.760788   89.637662
   9 H     1.0000    0     1.008  -40.230964   54.253579   89.853564
  10 H     1.0000    0     1.008  -39.179055   51.176616   92.965045
  11 H     1.0000    0     1.008  -36.025235   50.858193   91.834352
  12 C     6.0000    0    12.011  -44.248105   48.703461   85.449997
  13 H     1.0000    0     1.008  -43.052056   47.393883   84.376465
  14 H     1.0000    0     1.008  -45.861847   47.637659   86.204184
  15 O     8.0000    0    15.999  -42.681393   49.876940   87.636339
  16 C     6.0000    0    12.011  -45.300203   50.723549   83.595872
  17 C     6.0000    0    12.011  -47.012373   49.521816   81.592767
  18 C     6.0000    0    12.011  -49.505087   49.169100   83.079849
  19 C     6.0000    0    12.011  -49.565231   51.506885   84.840835
  20 O     8.0000    0    15.999  -46.955319   52.498488   84.933514
  21 H     1.0000    0     1.008  -43.729572   51.819225   82.828670
  22 H     1.0000    0     1.008  -47.286018   50.829396   80.010912
  23 O     8.0000    0    15.999  -45.954544   46.998718   80.532960
  24 H     1.0000    0     1.008  -51.166090   49.065368   81.849532
  25 H     1.0000    0     1.008  -49.429920   47.421205   84.191197
  26 H     1.0000    0     1.008  -50.181512   51.036658   86.760800
  27 H     1.0000    0     1.008  -50.766749   53.018827   84.103603
  28 H     1.0000    0     1.008  -45.667676   45.655224   82.082692

--------------------------------
INTERNAL COORDINATES (ANGSTROEM)
--------------------------------
 C      0   0   0     0.000000000000     0.00000000     0.00000000
 C      1   0   0     1.533334275362     0.00000000     0.00000000
 C      2   1   0     1.547103422529   101.67907390     0.00000000
 C      3   2   1     1.549188819996   103.12737509    35.02687180
 O      1   2   3     1.466801281701   104.24948604   319.98542309
 H      1   2   3     1.091872245274   114.43876658   203.42640133
 H      2   1   3     1.095759553917   110.06782188   117.34000099
 H      2   1   3     1.095088580892   113.12442239   238.72597460
 H      3   2   1     1.094523183857   112.83161078   156.54780790
 H      3   2   1     1.096628013503   110.07982737   276.98070077
 H      4   3   2     1.095413164062   112.52534669   222.25678475
 H      4   3   2     1.093891219455   112.45670684    98.86663270
 C      1   2   3     2.621331531875   118.35380517   114.09934485
 H     13   1   2     1.097069733426    77.94905335   109.50535912
 H     13   1   2     1.098459375671   130.30270209   213.25476562
 O      1   2   3     1.552547583812   111.30349807    79.08752829
 C     13   1   2     1.554146389501   117.03605971     4.90519378
 C     17  13   1     1.532622588898   111.28406283   149.13450168
 C     18  17  13     1.547287626784   101.67124653    79.12911370
 C     19  18  17     1.549134274361   103.12699112    35.00617799
 O     17  13   1     1.466410924673   110.47440559   264.46578537
 H     17  13   1     1.091694554351   109.10942493    21.95477577
 H     18  17  13     1.095654142510   110.15074018   196.43542278
 O     18  17  13     1.552593314426   113.17274834   317.88792887
 H     19  18  17     1.095201807887   112.82450622   156.52353692
 H     19  18  17     1.096799434719   110.09131573   276.98578561
 H     20  19  18     1.095688368105   112.49182449   222.26759618
 H     20  19  18     1.093890305287   112.42621009    98.89925878
 H     24  18  17     1.095912861499   109.72557773    57.64824915

---------------------------
INTERNAL COORDINATES (A.U.)
---------------------------
 C      0   0   0     0.000000000000     0.00000000     0.00000000
 C      1   0   0     2.897581852189     0.00000000     0.00000000
 C      2   1   0     2.923601769431   101.67907390     0.00000000
 C      3   2   1     2.927542599525   103.12737509    35.02687180
 O      1   2   3     2.771852715300   104.24948604   319.98542309
 H      1   2   3     2.063339516798   114.43876658   203.42640133
 H      2   1   3     2.070685465531   110.06782188   117.34000099
 H      2   1   3     2.069417510270   113.12442239   238.72597460
 H      3   2   1     2.068349064717   112.83161078   156.54780790
 H      3   2   1     2.072326616307   110.07982737   276.98070077
 H      4   3   2     2.070030883569   112.52534669   222.25678475
 H      4   3   2     2.067154825070   112.45670684    98.86663270
 C      1   2   3     4.953598701455   118.35380517   114.09934485
 H     13   1   2     2.073161345990    77.94905335   109.50535912
 H     13   1   2     2.075787389257   130.30270209   213.25476562
 O      1   2   3     2.933889743286   111.30349807    79.08752829
 C     13   1   2     2.936911048180   117.03605971     4.90519378
 C     17  13   1     2.896236959678   111.28406283   149.13450168
 C     18  17  13     2.923949865027   101.67124653    79.12911370
 C     19  18  17     2.927439523213   103.12699112    35.00617799
 O     17  13   1     2.771115047422   110.47440559   264.46578537
 H     17  13   1     2.063003729617   109.10942493    21.95477577
 H     18  17  13     2.070486266841   110.15074018   196.43542278
 O     18  17  13     2.933976161622   113.17274834   317.88792887
 H     19  18  17     2.069631478283   112.82450622   156.52353692
 H     19  18  17     2.072650555459   110.09131573   276.98578561
 H     20  19  18     2.070550943841   112.49182449   222.26759618
 H     20  19  18     2.067153097543   112.42621009    98.89925878
 H     24  18  17     2.070975174876   109.72557773    57.64824915

---------------------
BASIS SET INFORMATION
---------------------
There are 3 groups of distinct atoms

 Group   1 Type C   : 10s4p contracted to 3s2p pattern {631/31}
 Group   2 Type O   : 10s4p contracted to 3s2p pattern {631/31}
 Group   3 Type H   : 4s contracted to 2s pattern {31}

Atom   0C    basis set group =>   1
Atom   1C    basis set group =>   1
Atom   2C    basis set group =>   1
Atom   3C    basis set group =>   1
Atom   4O    basis set group =>   2
Atom   5H    basis set group =>   3
Atom   6H    basis set group =>   3
Atom   7H    basis set group =>   3
Atom   8H    basis set group =>   3
Atom   9H    basis set group =>   3
Atom  10H    basis set group =>   3
Atom  11H    basis set group =>   3
Atom  12C    basis set group =>   1
Atom  13H    basis set group =>   3
Atom  14H    basis set group =>   3
Atom  15O    basis set group =>   2
Atom  16C    basis set group =>   1
Atom  17C    basis set group =>   1
Atom  18C    basis set group =>   1
Atom  19C    basis set group =>   1
Atom  20O    basis set group =>   2
Atom  21H    basis set group =>   3
Atom  22H    basis set group =>   3
Atom  23O    basis set group =>   2
Atom  24H    basis set group =>   3
Atom  25H    basis set group =>   3
Atom  26H    basis set group =>   3
Atom  27H    basis set group =>   3
Atom  28H    basis set group =>   3
------------------------------------------------------------------------------
                           ORCA GTO INTEGRAL CALCULATION
------------------------------------------------------------------------------

                         BASIS SET STATISTICS AND STARTUP INFO

 # of primitive gaussian shells          ...  246
 # of primitive gaussian functions       ...  350
 # of contracted shells                  ...   97
 # of contracted basis functions         ...  149
 Highest angular momentum                ...    1
 Maximum contraction depth               ...    6
 Integral package used                   ... LIBINT
 Integral threshhold            Thresh   ...  2.500e-11
 Primitive cut-off              TCut     ...  2.500e-12


------------------------------ INTEGRAL EVALUATION ----------------------------


 * One electron integrals 
 Pre-screening matrix                    ... done
 Shell pair data                         ... done (   0.003 sec)

-------------------------------------------------------------------------------
                                 ORCA SCF
-------------------------------------------------------------------------------

------------
SCF SETTINGS
------------
Hamiltonian:
 Density Functional     Method          .... DFT(GTOs)
 Exchange Functional    Exchange        .... B88
   X-Alpha parameter    XAlpha          ....  0.666667
   Becke's b parameter  XBeta           ....  0.004200
 Correlation Functional Correlation     .... LYP
 LDA part of GGA corr.  LDAOpt          .... VWN-5
 Gradients option       PostSCFGGA      .... off
 Hybrid DFT is turned on
   Fraction HF Exchange ScalHFX         ....  0.200000
   Scaling of DF-GGA-X  ScalDFX         ....  0.720000
   Scaling of DF-GGA-C  ScalDFC         ....  0.810000
   Scaling of DF-LDA-C  ScalLDAC        ....  1.000000
   Perturbative correction              ....  0.000000
   Density functional embedding theory  .... OFF
   NL short-range parameter             ....  4.800000


General Settings:
 Integral files         IntName         .... project_8053/ensemble_225_255
 Hartree-Fock type      HFTyp           .... RHF
 Total Charge           Charge          ....    0
 Multiplicity           Mult            ....    1
 Number of Electrons    NEL             ....  102
 Basis Dimension        Dim             ....  149
 Nuclear Repulsion      ENuc            ....    851.1492700318 Eh

Convergence Acceleration:
 DIIS                   CNVDIIS         .... on
   Start iteration      DIISMaxIt       ....    12
   Startup error        DIISStart       ....  0.200000
   # of expansion vecs  DIISMaxEq       ....     5
   Bias factor          DIISBfac        ....   1.050
   Max. coefficient     DIISMaxC        ....  10.000
 Newton-Raphson         CNVNR           .... off
 SOSCF                  CNVSOSCF        .... on
   Start iteration      SOSCFMaxIt      ....   150
   Startup grad/error   SOSCFStart      ....  0.003300
 Level Shifting         CNVShift        .... on
   Level shift para.    LevelShift      ....    0.2500
   Turn off err/grad.   ShiftErr        ....    0.0010
 Zerner damping         CNVZerner       .... off
 Static damping         CNVDamp         .... on
   Fraction old density DampFac         ....    0.7000
   Max. Damping (<1)    DampMax         ....    0.9800
   Min. Damping (>=0)   DampMin         ....    0.0000
   Turn off err/grad.   DampErr         ....    0.1000
 Fernandez-Rico         CNVRico         .... off

SCF Procedure:
 Maximum # iterations   MaxIter         ....   125
 SCF integral mode      SCFMode         .... Direct
   Integral package                     .... LIBINT
 Reset frequency        DirectResetFreq ....    20
 Integral Threshold     Thresh          ....  2.500e-11 Eh
 Primitive CutOff       TCut            ....  2.500e-12 Eh

Convergence Tolerance:
 Convergence Check Mode ConvCheckMode   .... Total+1el-Energy
 Convergence forced     ConvForced      .... 0
 Energy Change          TolE            ....  1.000e-08 Eh
 1-El. energy change                    ....  1.000e-05 Eh
 Orbital Gradient       TolG            ....  1.000e-05
 Orbital Rotation angle TolX            ....  1.000e-05
 DIIS Error             TolErr          ....  5.000e-07


Diagonalization of the overlap matrix:
Smallest eigenvalue                        ... 3.885e-03
Time for diagonalization                   ...    0.006 sec
Threshold for overlap eigenvalues          ... 1.000e-08
Number of eigenvalues below threshold      ... 0
Time for construction of square roots      ...    0.100 sec
Total time needed                          ...    0.107 sec

-------------------
DFT GRID GENERATION
-------------------

General Integration Accuracy     IntAcc      ...  4.340
Radial Grid Type                 RadialGrid  ... Gauss-Chebyshev
Angular Grid (max. acc.)         AngularGrid ... Lebedev-110
Angular grid pruning method      GridPruning ... 3 (G Style)
Weight generation scheme         WeightScheme... Becke
Basis function cutoff            BFCut       ...    1.0000e-11
Integration weight cutoff        WCut        ...    1.0000e-14
Grids for H and He will be reduced by one unit

# of grid points (after initial pruning)     ...  34472 (   0.0 sec)
# of grid points (after weights+screening)   ...  31056 (   0.5 sec)
nearest neighbour list constructed           ...    0.0 sec
Grid point re-assignment to atoms done       ...    0.0 sec
Grid point division into batches done        ...    0.0 sec
Reduced shell lists constructed in    0.5 sec

Total number of grid points                  ...    31056
Total number of batches                      ...      500
Average number of points per batch           ...       62
Average number of grid points per atom       ...     1071
Average number of shells per batch           ...    56.79 (58.55%)
Average number of basis functions per batch  ...    92.15 (61.85%)
Average number of large shells per batch     ...    39.89 (70.24%)
Average number of large basis fcns per batch ...    65.95 (71.57%)
Maximum spatial batch extension              ...  20.07, 20.09, 19.71 au
Average spatial batch extension              ...   3.29,  3.51,  3.36 au

Time for grid setup =    1.114 sec

------------------------------
INITIAL GUESS: MODEL POTENTIAL
------------------------------
Loading Hartree-Fock densities                     ... done
Calculating cut-offs                               ... done
Setting up the integral package                    ... done
Initializing the effective Hamiltonian             ... done
Starting the Coulomb interaction                   ... done (   0.6 sec)
Reading the grid                                   ... done
Mapping shells                                     ... done
Starting the XC term evaluation                    ... done (   0.7 sec)
  promolecular density results
     # of electrons  =    101.991110329
     EX              =    -83.664637436
     EC              =     -3.456638331
     EX+EC           =    -87.121275768
Transforming the Hamiltonian                       ... done (   0.0 sec)
Diagonalizing the Hamiltonian                      ... done (   0.0 sec)
Back transforming the eigenvectors                 ... done (   0.0 sec)
Now organizing SCF variables                       ... done
                      ------------------
                      INITIAL GUESS DONE (   2.5 sec)
                      ------------------
--------------
SCF ITERATIONS
--------------
ITER       Energy         Delta-E        Max-DP      RMS-DP      [F,P]     Damp
               ***  Starting incremental Fock matrix formation  ***
  0   -652.5255271874   0.000000000000 0.07669271  0.00313511  0.2338885 0.7000
  1   -652.6672685584  -0.141741370996 0.04451522  0.00213960  0.0942063 0.7000
                               ***Turning on DIIS***
  2   -652.7202460141  -0.052977455753 0.05715997  0.00337334  0.0298627 0.0000
  3   -652.8074001926  -0.087154178434 0.03105923  0.00142106  0.0504596 0.0000
  4   -652.8251458329  -0.017745640387 0.00848268  0.00043485  0.0094879 0.0000
  5   -652.8261912991  -0.001045466174 0.00270809  0.00013139  0.0043827 0.0000
                      *** Initiating the SOSCF procedure ***
                           *** Shutting down DIIS ***
                      *** Re-Reading the Fockian *** 
                      *** Removing any level shift *** 
ITER      Energy       Delta-E        Grad      Rot      Max-DP    RMS-DP
  6   -652.82626322  -0.0000719232  0.000189  0.000189  0.000857  0.000056
               *** Restarting incremental Fock matrix formation ***
  7   -652.82626613  -0.0000029061  0.000111  0.000241  0.000934  0.000036
  8   -652.82626328   0.0000028497  0.000210  0.000178  0.000678  0.000023
  9   -652.82626762  -0.0000043376  0.000025  0.000050  0.000216  0.000006
 10   -652.82626756   0.0000000605  0.000035  0.000031  0.000128  0.000004
 11   -652.82626768  -0.0000001224  0.000007  0.000008  0.000031  0.000001
 12   -652.82626768   0.0000000029  0.000010  0.000005  0.000019  0.000001
                  ***Gradient check signals convergence***
              ***Rediagonalizing the Fockian in SOSCF/NRSCF***

               *****************************************************
               *                     SUCCESS                       *
               *           SCF CONVERGED AFTER  13 CYCLES          *
               *****************************************************

Setting up the final grid:

General Integration Accuracy     IntAcc      ...  4.670
Radial Grid Type                 RadialGrid  ... Gauss-Chebyshev
Angular Grid (max. acc.)         AngularGrid ... Lebedev-302
Angular grid pruning method      GridPruning ... 3 (G Style)
Weight generation scheme         WeightScheme... Becke
Basis function cutoff            BFCut       ...    1.0000e-11
Integration weight cutoff        WCut        ...    1.0000e-14
Grids for H and He will be reduced by one unit

# of grid points (after initial pruning)     ... 135060 (   0.1 sec)
# of grid points (after weights+screening)   ... 119312 (   1.3 sec)
nearest neighbour list constructed           ...    0.0 sec
Grid point re-assignment to atoms done       ...    0.0 sec
Grid point division into batches done        ...    0.4 sec
Reduced shell lists constructed in    1.6 sec

Total number of grid points                  ...   119312
Total number of batches                      ...     1878
Average number of points per batch           ...       63
Average number of grid points per atom       ...     4114
Average number of shells per batch           ...    51.64 (53.23%)
Average number of basis functions per batch  ...    84.00 (56.37%)
Average number of large shells per batch     ...    35.68 (69.10%)
Average number of large basis fcns per batch ...    59.12 (70.39%)
Maximum spatial batch extension              ...  17.42, 20.25, 16.91 au
Average spatial batch extension              ...   2.18,  2.28,  2.24 au

Final grid set up in    3.0 sec
Final integration                            ... done (   3.9 sec)
Change in XC energy                          ...    -0.000033040
Integrated number of electrons               ...   101.999928655
Previous integrated no of electrons          ...   102.001048245

----------------
TOTAL SCF ENERGY
----------------

Total Energy       :         -652.82630072 Eh          -17764.30676 eV

Components:
Nuclear Repulsion  :          851.14927003 Eh           23160.94912 eV
Electronic Energy  :        -1503.97557075 Eh          -40925.25588 eV
One Electron Energy:        -2580.02131464 Eh          -70205.94917 eV
Two Electron Energy:         1076.04574389 Eh           29280.69329 eV

Virial components:
Potential Energy   :        -1301.74843772 Eh          -35422.37583 eV
Kinetic Energy     :          648.92213700 Eh           17658.06907 eV
Virial Ratio       :            2.00601638


DFT components:
N(Alpha)           :       50.999964327510 electrons
N(Beta)            :       50.999964327510 electrons
N(Total)           :      101.999928655020 electrons
E(X)               :      -67.585252276568 Eh       
E(C)               :       -4.068096329892 Eh       
E(XC)              :      -71.653348606460 Eh       
DFET-embed. en.    :        0.000000000000 Eh       

---------------
SCF CONVERGENCE
---------------

  Last Energy change         ...   -4.9323e-09  Tolerance :   1.0000e-08
  Last MAX-Density change    ...    2.4127e-06  Tolerance :   1.0000e-07
  Last RMS-Density change    ...    9.7293e-08  Tolerance :   5.0000e-09
  Last Orbital Gradient      ...    3.1828e-07  Tolerance :   1.0000e-05
  Last Orbital Rotation      ...    5.4139e-07  Tolerance :   1.0000e-05

             **** THE GBW FILE WAS UPDATED (project_8053/ensemble_225_255.gbw) ****
             **** DENSITY FILE WAS UPDATED (project_8053/ensemble_225_255.scfp) ****
             **** ENERGY FILE WAS UPDATED (project_8053/ensemble_225_255.en.tmp) ****
             **** THE GBW FILE WAS UPDATED (project_8053/ensemble_225_255.gbw) ****
             **** DENSITY FILE WAS UPDATED (project_8053/ensemble_225_255.scfp) ****
----------------
ORBITAL ENERGIES
----------------

  NO   OCC          E(Eh)            E(eV) 
   0   2.0000     -19.160033      -521.3710 
   1   2.0000     -19.145355      -520.9716 
   2   2.0000     -19.141740      -520.8732 
   3   2.0000     -19.141227      -520.8593 
   4   2.0000     -10.282326      -279.7963 
   5   2.0000     -10.254135      -279.0292 
   6   2.0000     -10.240566      -278.6600 
   7   2.0000     -10.238702      -278.6092 
   8   2.0000     -10.232641      -278.4443 
   9   2.0000     -10.222606      -278.1712 
  10   2.0000     -10.198404      -277.5127 
  11   2.0000     -10.187235      -277.2088 
  12   2.0000     -10.183255      -277.1005 
  13   2.0000      -1.031207       -28.0606 
  14   2.0000      -1.027168       -27.9507 
  15   2.0000      -0.979943       -26.6656 
  16   2.0000      -0.959554       -26.1108 
  17   2.0000      -0.788674       -21.4609 
  18   2.0000      -0.783272       -21.3139 
  19   2.0000      -0.765115       -20.8199 
  20   2.0000      -0.728932       -19.8352 
  21   2.0000      -0.681719       -18.5505 
  22   2.0000      -0.607262       -16.5244 
  23   2.0000      -0.594658       -16.1815 
  24   2.0000      -0.587529       -15.9875 
  25   2.0000      -0.576762       -15.6945 
  26   2.0000      -0.522969       -14.2307 
  27   2.0000      -0.499840       -13.6013 
  28   2.0000      -0.493579       -13.4310 
  29   2.0000      -0.486534       -13.2393 
  30   2.0000      -0.464841       -12.6490 
  31   2.0000      -0.442760       -12.0481 
  32   2.0000      -0.442005       -12.0276 
  33   2.0000      -0.433919       -11.8075 
  34   2.0000      -0.421625       -11.4730 
  35   2.0000      -0.418565       -11.3897 
  36   2.0000      -0.406508       -11.0617 
  37   2.0000      -0.397276       -10.8104 
  38   2.0000      -0.379421       -10.3246 
  39   2.0000      -0.366027        -9.9601 
  40   2.0000      -0.355867        -9.6836 
  41   2.0000      -0.354651        -9.6506 
  42   2.0000      -0.348395        -9.4803 
  43   2.0000      -0.334259        -9.0956 
  44   2.0000      -0.315055        -8.5731 
  45   2.0000      -0.314250        -8.5512 
  46   2.0000      -0.301049        -8.1920 
  47   2.0000      -0.273534        -7.4432 
  48   2.0000      -0.263990        -7.1835 
  49   2.0000      -0.254299        -6.9198 
  50   2.0000      -0.237308        -6.4575 
  51   0.0000       0.017407         0.4737 
  52   0.0000       0.062545         1.7019 
  53   0.0000       0.068134         1.8540 
  54   0.0000       0.083085         2.2609 
  55   0.0000       0.097985         2.6663 
  56   0.0000       0.102814         2.7977 
  57   0.0000       0.115717         3.1488 
  58   0.0000       0.119662         3.2562 
  59   0.0000       0.125060         3.4030 
  60   0.0000       0.137075         3.7300 
  61   0.0000       0.144518         3.9325 
  62   0.0000       0.149188         4.0596 
  63   0.0000       0.151755         4.1295 
  64   0.0000       0.155214         4.2236 
  65   0.0000       0.162530         4.4227 
  66   0.0000       0.172840         4.7032 
  67   0.0000       0.175604         4.7784 
  68   0.0000       0.184406         5.0180 
  69   0.0000       0.190683         5.1887 
  70   0.0000       0.212016         5.7693 
  71   0.0000       0.221409         6.0249 
  72   0.0000       0.229778         6.2526 
  73   0.0000       0.235757         6.4153 
  74   0.0000       0.241379         6.5683 
  75   0.0000       0.254004         6.9118 
  76   0.0000       0.263551         7.1716 
  77   0.0000       0.265353         7.2206 
  78   0.0000       0.278913         7.5896 
  79   0.0000       0.288103         7.8397 
  80   0.0000       0.293670         7.9912 
  81   0.0000       0.520008        14.1501 
  82   0.0000       0.527821        14.3627 
  83   0.0000       0.540659        14.7121 
  84   0.0000       0.553328        15.0568 
  85   0.0000       0.555926        15.1275 
  86   0.0000       0.561079        15.2677 
  87   0.0000       0.575140        15.6504 
  88   0.0000       0.578960        15.7543 
  89   0.0000       0.588814        16.0224 
  90   0.0000       0.590781        16.0760 
  91   0.0000       0.602163        16.3857 
  92   0.0000       0.615837        16.7578 
  93   0.0000       0.634078        17.2541 
  94   0.0000       0.643029        17.4977 
  95   0.0000       0.645361        17.5612 
  96   0.0000       0.654867        17.8198 
  97   0.0000       0.672250        18.2929 
  98   0.0000       0.678807        18.4713 
  99   0.0000       0.696428        18.9508 
 100   0.0000       0.716729        19.5032 
 101   0.0000       0.746950        20.3255 
 102   0.0000       0.791037        21.5252 
 103   0.0000       0.803742        21.8709 
 104   0.0000       0.811984        22.0952 
 105   0.0000       0.819915        22.3110 
 106   0.0000       0.828653        22.5488 
 107   0.0000       0.843552        22.9542 
 108   0.0000       0.854905        23.2631 
 109   0.0000       0.868261        23.6266 
 110   0.0000       0.877117        23.8676 
 111   0.0000       0.882939        24.0260 
 112   0.0000       0.896431        24.3931 
 113   0.0000       0.901746        24.5378 
 114   0.0000       0.914525        24.8855 
 115   0.0000       0.927966        25.2512 
 116   0.0000       0.934624        25.4324 
 117   0.0000       0.939841        25.5744 
 118   0.0000       0.949586        25.8396 
 119   0.0000       0.955357        25.9966 
 120   0.0000       0.962302        26.1856 
 121   0.0000       0.995182        27.0803 
 122   0.0000       1.005773        27.3685 
 123   0.0000       1.014257        27.5993 
 124   0.0000       1.028021        27.9739 
 125   0.0000       1.054966        28.7071 
 126   0.0000       1.062358        28.9082 
 127   0.0000       1.091250        29.6944 
 128   0.0000       1.135807        30.9069 
 129   0.0000       1.162054        31.6211 
 130   0.0000       1.173066        31.9208 
 131   0.0000       1.208986        32.8982 
 132   0.0000       1.244347        33.8604 
 133   0.0000       1.298921        35.3454 
 134   0.0000       1.349356        36.7178 
 135   0.0000       1.365813        37.1657 
 136   0.0000       1.368124        37.2285 
 137   0.0000       1.397410        38.0255 
 138   0.0000       1.438348        39.1394 
 139   0.0000       1.458119        39.6774 
 140   0.0000       1.492012        40.5997 
 141   0.0000       1.558308        42.4037 
 142   0.0000       1.603057        43.6214 
 143   0.0000       1.641871        44.6776 
 144   0.0000       1.786905        48.6241 
 145   0.0000       1.817912        49.4679 
 146   0.0000       1.930663        52.5360 
 147   0.0000       2.019971        54.9662 
 148   0.0000       2.100850        57.1670 

                    ********************************
                    * MULLIKEN POPULATION ANALYSIS *
                    ********************************

-----------------------
MULLIKEN ATOMIC CHARGES
-----------------------
   0 C :    0.280165
   1 C :   -0.265048
   2 C :   -0.302671
   3 C :   -0.002010
   4 O :   -0.502210
   5 H :    0.143333
   6 H :    0.145829
   7 H :    0.155008
   8 H :    0.140495
   9 H :    0.172139
  10 H :    0.153111
  11 H :    0.139801
  12 C :   -0.042678
  13 H :    0.125291
  14 H :    0.142067
  15 O :   -0.493201
  16 C :    0.081396
  17 C :    0.076553
  18 C :   -0.313795
  19 C :   -0.017909
  20 O :   -0.498432
  21 H :    0.154187
  22 H :    0.172939
  23 O :   -0.590478
  24 H :    0.158488
  25 H :    0.141405
  26 H :    0.152657
  27 H :    0.151115
  28 H :    0.342450
Sum of atomic charges:   -0.0000000

--------------------------------
MULLIKEN REDUCED ORBITAL CHARGES
--------------------------------
  0 C s       :     3.230666  s :     3.230666
      pz      :     0.798698  p :     2.489169
      px      :     0.693352
      py      :     0.997119
  1 C s       :     3.303806  s :     3.303806
      pz      :     0.990837  p :     2.961242
      px      :     1.026711
      py      :     0.943694
  2 C s       :     3.317026  s :     3.317026
      pz      :     0.904199  p :     2.985645
      px      :     1.091771
      py      :     0.989674
  3 C s       :     3.261015  s :     3.261015
      pz      :     0.943057  p :     2.740995
      px      :     1.054654
      py      :     0.743284
  4 O s       :     3.946799  s :     3.946799
      pz      :     1.318720  p :     4.555411
      px      :     1.716979
      py      :     1.519712
  5 H s       :     0.856667  s :     0.856667
  6 H s       :     0.854171  s :     0.854171
  7 H s       :     0.844992  s :     0.844992
  8 H s       :     0.859505  s :     0.859505
  9 H s       :     0.827861  s :     0.827861
 10 H s       :     0.846889  s :     0.846889
 11 H s       :     0.860199  s :     0.860199
 12 C s       :     3.293909  s :     3.293909
      pz      :     0.839258  p :     2.748769
      px      :     0.952896
      py      :     0.956615
 13 H s       :     0.874709  s :     0.874709
 14 H s       :     0.857933  s :     0.857933
 15 O s       :     3.949861  s :     3.949861
      pz      :     1.542444  p :     4.543340
      px      :     1.232915
      py      :     1.767980
 16 C s       :     3.266197  s :     3.266197
      pz      :     0.878116  p :     2.652407
      px      :     0.912376
      py      :     0.861915
 17 C s       :     3.289208  s :     3.289208
      pz      :     0.955884  p :     2.634239
      px      :     0.895316
      py      :     0.783039
 18 C s       :     3.324014  s :     3.324014
      pz      :     0.995525  p :     2.989781
      px      :     1.008405
      py      :     0.985851
 19 C s       :     3.265497  s :     3.265497
      pz      :     1.056012  p :     2.752412
      px      :     0.738392
      py      :     0.958008
 20 O s       :     3.946454  s :     3.946454
      pz      :     1.754309  p :     4.551978
      px      :     1.195020
      py      :     1.602649
 21 H s       :     0.845813  s :     0.845813
 22 H s       :     0.827061  s :     0.827061
 23 O s       :     3.954662  s :     3.954662
      pz      :     1.511952  p :     4.635816
      px      :     1.849117
      py      :     1.274747
 24 H s       :     0.841512  s :     0.841512
 25 H s       :     0.858595  s :     0.858595
 26 H s       :     0.847343  s :     0.847343
 27 H s       :     0.848885  s :     0.848885
 28 H s       :     0.657550  s :     0.657550


                     *******************************
                     * LOEWDIN POPULATION ANALYSIS *
                     *******************************

----------------------
LOEWDIN ATOMIC CHARGES
----------------------
   0 C :    0.184987
   1 C :   -0.223153
   2 C :   -0.217178
   3 C :   -0.028232
   4 O :   -0.306613
   5 H :    0.100446
   6 H :    0.114368
   7 H :    0.121235
   8 H :    0.113277
   9 H :    0.123799
  10 H :    0.108337
  11 H :    0.100778
  12 C :   -0.052955
  13 H :    0.097606
  14 H :    0.105878
  15 O :   -0.347931
  16 C :    0.017583
  17 C :    0.039998
  18 C :   -0.235396
  19 C :   -0.033328
  20 O :   -0.313201
  21 H :    0.113982
  22 H :    0.126663
  23 O :   -0.434790
  24 H :    0.123788
  25 H :    0.108348
  26 H :    0.106580
  27 H :    0.106241
  28 H :    0.278882

-------------------------------
LOEWDIN REDUCED ORBITAL CHARGES
-------------------------------
  0 C s       :     2.980903  s :     2.980903
      pz      :     0.918127  p :     2.834111
      px      :     0.832767
      py      :     1.083216
  1 C s       :     2.979793  s :     2.979793
      pz      :     1.078695  p :     3.243360
      px      :     1.106465
      py      :     1.058200
  2 C s       :     2.973186  s :     2.973186
      pz      :     1.029309  p :     3.243992
      px      :     1.135527
      py      :     1.079156
  3 C s       :     2.983926  s :     2.983926
      pz      :     1.040009  p :     3.044306
      px      :     1.117964
      py      :     0.886333
  4 O s       :     3.608483  s :     3.608483
      pz      :     1.381671  p :     4.698130
      px      :     1.750813
      py      :     1.565646
  5 H s       :     0.899554  s :     0.899554
  6 H s       :     0.885632  s :     0.885632
  7 H s       :     0.878765  s :     0.878765
  8 H s       :     0.886723  s :     0.886723
  9 H s       :     0.876201  s :     0.876201
 10 H s       :     0.891663  s :     0.891663
 11 H s       :     0.899222  s :     0.899222
 12 C s       :     3.003330  s :     3.003330
      pz      :     0.952689  p :     3.049625
      px      :     1.043595
      py      :     1.053341
 13 H s       :     0.902394  s :     0.902394
 14 H s       :     0.894122  s :     0.894122
 15 O s       :     3.663353  s :     3.663353
      pz      :     1.586191  p :     4.684579
      px      :     1.299163
      py      :     1.799225
 16 C s       :     2.968484  s :     2.968484
      pz      :     1.003450  p :     3.013934
      px      :     1.018800
      py      :     0.991684
 17 C s       :     2.973626  s :     2.973626
      pz      :     1.068187  p :     2.986376
      px      :     1.022769
      py      :     0.895420
 18 C s       :     2.981522  s :     2.981522
      pz      :     1.081937  p :     3.253874
      px      :     1.085837
      py      :     1.086100
 19 C s       :     2.981758  s :     2.981758
      pz      :     1.118066  p :     3.051570
      px      :     0.873183
      py      :     1.060321
 20 O s       :     3.604059  s :     3.604059
      pz      :     1.784262  p :     4.709142
      px      :     1.270288
      py      :     1.654592
 21 H s       :     0.886018  s :     0.886018
 22 H s       :     0.873337  s :     0.873337
 23 O s       :     3.694089  s :     3.694089
      pz      :     1.548609  p :     4.740701
      px      :     1.862192
      py      :     1.329900
 24 H s       :     0.876212  s :     0.876212
 25 H s       :     0.891652  s :     0.891652
 26 H s       :     0.893420  s :     0.893420
 27 H s       :     0.893759  s :     0.893759
 28 H s       :     0.721118  s :     0.721118


                      *****************************
                      * MAYER POPULATION ANALYSIS *
                      *****************************

  NA   - Mulliken gross atomic population
  ZA   - Total nuclear charge
  QA   - Mulliken gross atomic charge
  VA   - Mayer's total valence
  BVA  - Mayer's bonded valence
  FA   - Mayer's free valence

  ATOM       NA         ZA         QA         VA         BVA        FA
  0 C      5.7198     6.0000     0.2802     3.6640     3.6640    -0.0000
  1 C      6.2650     6.0000    -0.2650     3.7222     3.7222    -0.0000
  2 C      6.3027     6.0000    -0.3027     3.7640     3.7640    -0.0000
  3 C      6.0020     6.0000    -0.0020     3.6554     3.6554     0.0000
  4 O      8.5022     8.0000    -0.5022     1.8190     1.8190    -0.0000
  5 H      0.8567     1.0000     0.1433     0.9338     0.9338     0.0000
  6 H      0.8542     1.0000     0.1458     0.9302     0.9302    -0.0000
  7 H      0.8450     1.0000     0.1550     0.9405     0.9405    -0.0000
  8 H      0.8595     1.0000     0.1405     0.9367     0.9367    -0.0000
  9 H      0.8279     1.0000     0.1721     0.9307     0.9307     0.0000
 10 H      0.8469     1.0000     0.1531     0.9254     0.9254     0.0000
 11 H      0.8602     1.0000     0.1398     0.9285     0.9285    -0.0000
 12 C      6.0427     6.0000    -0.0427     3.6621     3.6621    -0.0000
 13 H      0.8747     1.0000     0.1253     0.9469     0.9469    -0.0000
 14 H      0.8579     1.0000     0.1421     0.9371     0.9371     0.0000
 15 O      8.4932     8.0000    -0.4932     1.8103     1.8103    -0.0000
 16 C      5.9186     6.0000     0.0814     3.5708     3.5708     0.0000
 17 C      5.9234     6.0000     0.0766     3.6296     3.6296     0.0000
 18 C      6.3138     6.0000    -0.3138     3.7194     3.7194     0.0000
 19 C      6.0179     6.0000    -0.0179     3.6497     3.6497    -0.0000
 20 O      8.4984     8.0000    -0.4984     1.7811     1.7811    -0.0000
 21 H      0.8458     1.0000     0.1542     0.9368     0.9368     0.0000
 22 H      0.8271     1.0000     0.1729     0.9273     0.9273     0.0000
 23 O      8.5905     8.0000    -0.5905     1.7663     1.7663    -0.0000
 24 H      0.8415     1.0000     0.1585     0.9376     0.9376     0.0000
 25 H      0.8586     1.0000     0.1414     0.9416     0.9416     0.0000
 26 H      0.8473     1.0000     0.1527     0.9238     0.9238    -0.0000
 27 H      0.8489     1.0000     0.1511     0.9268     0.9268    -0.0000
 28 H      0.6575     1.0000     0.3425     0.8555     0.8555     0.0000

  Mayer bond orders larger than 0.100000
B(  0-C ,  1-C ) :   0.9312 B(  0-C ,  4-O ) :   0.9283 B(  0-C ,  5-H ) :   0.9167 
B(  0-C , 15-O ) :   0.8420 B(  1-C ,  2-C ) :   0.9586 B(  1-C ,  6-H ) :   0.9326 
B(  1-C ,  7-H ) :   0.9343 B(  2-C ,  3-C ) :   0.9538 B(  2-C ,  8-H ) :   0.9448 
B(  2-C ,  9-H ) :   0.9418 B(  3-C ,  4-O ) :   0.8376 B(  3-C , 10-H ) :   0.9337 
B(  3-C , 11-H ) :   0.9387 B( 12-C , 13-H ) :   0.8998 B( 12-C , 14-H ) :   0.9262 
B( 12-C , 15-O ) :   0.8856 B( 12-C , 16-C ) :   0.8841 B( 16-C , 17-C ) :   0.8749 
B( 16-C , 20-O ) :   0.8734 B( 16-C , 21-H ) :   0.9323 B( 17-C , 18-C ) :   0.9167 
B( 17-C , 22-H ) :   0.9309 B( 17-C , 23-O ) :   0.8857 B( 18-C , 19-C ) :   0.9308 
B( 18-C , 24-H ) :   0.9429 B( 18-C , 25-H ) :   0.9419 B( 19-C , 20-O ) :   0.8463 
B( 19-C , 26-H ) :   0.9300 B( 19-C , 27-H ) :   0.9367 B( 23-O , 28-H ) :   0.8019 


-------
TIMINGS
-------

Total SCF time: 0 days 0 hours 2 min 34 sec 

Total time                  ....     154.927 sec
Sum of individual times     ....     152.357 sec  ( 98.3%)

Fock matrix formation       ....     146.286 sec  ( 94.4%)
  XC integration            ....      16.686 sec  ( 11.4% of F)
    Basis function eval.    ....       4.246 sec  ( 25.4% of XC)
    Density eval.           ....       1.893 sec  ( 11.3% of XC)
    XC-Functional eval.     ....       0.978 sec  (  5.9% of XC)
    XC-Potential eval.      ....       2.456 sec  ( 14.7% of XC)
Diagonalization             ....       0.221 sec  (  0.1%)
Density matrix formation    ....       0.010 sec  (  0.0%)
Population analysis         ....       0.078 sec  (  0.1%)
Initial guess               ....       1.436 sec  (  0.9%)
Orbital Transformation      ....       0.000 sec  (  0.0%)
Orbital Orthonormalization  ....       0.000 sec  (  0.0%)
DIIS solution               ....       0.103 sec  (  0.1%)
SOSCF solution              ....       0.077 sec  (  0.0%)
Grid generation             ....       4.144 sec  (  2.7%)

-------------------------   --------------------
FINAL SINGLE POINT ENERGY      -652.826300719854
-------------------------   --------------------

------------------------------------------------------------------------------
                         ORCA SCF GRADIENT CALCULATION
------------------------------------------------------------------------------

Gradient of the Kohn-Sham DFT energy:
Kohn-Sham wavefunction type      ... RKS
Hartree-Fock exchange scaling    ...    0.200
Number of operators              ...    1
Number of atoms                  ...   29
Basis set dimensions             ...  149
Integral neglect threshold       ... 2.5e-11
Integral primitive cutoff        ... 2.5e-12

Nuclear repulsion gradient       ... done
One Electron Gradient            ... done
Pre-screening matrix             ... done
Starting the two electron gradient:
Two electron gradient done
Exchange-correlation gradient    ... done

------------------
CARTESIAN GRADIENT
------------------

   1   C   :    0.014713517    0.004392452   -0.007341443
   2   C   :    0.008965253   -0.003762703   -0.004111828
   3   C   :    0.000082532   -0.000776629   -0.001832950
   4   C   :    0.000053660   -0.005085709   -0.003441833
   5   O   :    0.015460790   -0.006811578    0.018717519
   6   H   :    0.003484983    0.002212483   -0.000797977
   7   H   :   -0.000201634    0.002543883   -0.000032359
   8   H   :    0.000404498    0.001972188   -0.001305070
   9   H   :   -0.000714040    0.000675722    0.000128494
  10   H   :   -0.000462542    0.001901284    0.001163609
  11   H   :   -0.000343540    0.001022367    0.001590187
  12   H   :   -0.000503703    0.001101972    0.000693508
  13   C   :   -0.018389923   -0.017487625   -0.009965282
  14   H   :   -0.003668961   -0.000521521   -0.002838961
  15   H   :   -0.007810955   -0.003398027   -0.011854219
  16   O   :   -0.008885125    0.017665853    0.028764785
  17   C   :   -0.015118655    0.001999855   -0.018788155
  18   C   :   -0.005197524    0.035717009   -0.003870510
  19   C   :    0.004090397   -0.004617295    0.001891033
  20   C   :    0.003428468    0.002528607   -0.000023045
  21   O   :   -0.002140373    0.001460108    0.004848350
  22   H   :    0.001534141   -0.001732630    0.001610208
  23   H   :   -0.004575645    0.010267603    0.004441351
  24   O   :    0.002948215    0.007168433   -0.050297627
  25   H   :   -0.001745301    0.000480223   -0.000093373
  26   H   :    0.000192944    0.000362849    0.001905670
  27   H   :   -0.000154239   -0.000628094    0.000831461
  28   H   :    0.000294997   -0.000159919    0.000045565
  29   H   :    0.014257766   -0.048491161    0.049962892

Difference to translation invariance:
           :    0.0000000000   -0.0000000001   -0.0000000000

Norm of the cartesian gradient     ...    0.1145140391
RMS gradient                       ...    0.0122771937
MAX gradient                       ...    0.0502976272

-------
TIMINGS
-------

Total SCF gradient time            ...       39.858 sec

One electron gradient       ....       0.316 sec  (  0.8%)
Prescreening matrices       ....       0.062 sec  (  0.2%)
Two electron gradient       ....      24.318 sec  ( 61.0%)
XC gradient                 ....      14.991 sec  ( 37.6%)
------------------------------------------------------------------------------
                         ORCA GEOMETRY RELAXATION STEP
------------------------------------------------------------------------------

Reading the OPT-File                    .... done
Getting information on internals        .... done
Copying old internal coords+grads       .... done
Making the new internal coordinates     .... (new redundants).... done
Validating the new internal coordinates .... (new redundants).... done
Calculating the B-matrix                .... done
Calculating the G,G- and P matrices     .... done
Transforming gradient to internals      .... done
Projecting the internal gradient        .... done
Number of atoms                         ....  29
Number of internal coordinates          .... 172
Current Energy                          ....  -652.826300720 Eh
Current gradient norm                   ....     0.114514039 Eh/bohr
Maximum allowed component of the step   ....  0.300
Current trust radius                    ....  0.300
Evaluating the initial hessian          ....  (Almloef) done
Projecting the Hessian                  .... done
Forming the augmented Hessian           .... done
Diagonalizing the augmented Hessian     .... done
Last element of RFO vector              ....  0.939126554
Lowest eigenvalues of augmented Hessian:
 -0.038253128  0.007990409  0.032953558  0.033093835  0.036713678
Length of the computed step             ....  0.365841442
Warning: the length of the step is outside the trust region - taking restricted step instead
The input lambda is                     ....    -0.038253
   iter:   1  x=   -0.071765  g=    1.308201 f(x)=     0.043840
   iter:   2  x=   -0.088715  g=    0.710812 f(x)=     0.012048
   iter:   3  x=   -0.090858  g=    0.574281 f(x)=     0.001231
   iter:   4  x=   -0.090885  g=    0.560307 f(x)=     0.000015
   iter:   5  x=   -0.090885  g=    0.560135 f(x)=     0.000000
   iter:   6  x=   -0.090885  g=    0.560135 f(x)=     0.000000
The output lambda is                    ....    -0.090885 (6 iterations)
The final length of the internal step   ....  0.300000000
Converting the step to cartesian space:
 Initial RMS(Int)=    0.0228747855
Transforming coordinates:
 Iter   0:  RMS(Cart)=    0.0834894875 RMS(Int)=    0.0228139926
 Iter   1:  RMS(Cart)=    0.0018289488 RMS(Int)=    0.0008035260
 Iter   2:  RMS(Cart)=    0.0001284401 RMS(Int)=    0.0000681823
 Iter   3:  RMS(Cart)=    0.0000067882 RMS(Int)=    0.0000040619
 Iter   4:  RMS(Cart)=    0.0000002935 RMS(Int)=    0.0000001838
 Iter   5:  RMS(Cart)=    0.0000000184 RMS(Int)=    0.0000000088
Imposing constraints:
 Iter   0:  RMS(Cart)=    0.0000625466 RMS(Int)=    0.0000401489
 Iter   1:  RMS(Cart)=    0.0000400619 RMS(Int)=    0.0000298075
 Iter   2:  RMS(Cart)=    0.0000267731 RMS(Int)=    0.0000235401
 Iter   3:  RMS(Cart)=    0.0000184728 RMS(Int)=    0.0000197279
 Iter   4:  RMS(Cart)=    0.0000130814 RMS(Int)=    0.0000173901
 Iter   5:  RMS(Cart)=    0.0000094944 RMS(Int)=    0.0000159076
 Iter   6:  RMS(Cart)=    0.0000070781 RMS(Int)=    0.0000149034
 Iter   7:  RMS(Cart)=    0.0000054430 RMS(Int)=    0.0000141611
 Iter   8:  RMS(Cart)=    0.0000043356 RMS(Int)=    0.0000135625
[...]
  29   2.0000      -0.489197       -13.3117 
  30   2.0000      -0.465651       -12.6710 
  31   2.0000      -0.453094       -12.3293 
  32   2.0000      -0.443886       -12.0787 
  33   2.0000      -0.438756       -11.9392 
  34   2.0000      -0.429750       -11.6941 
  35   2.0000      -0.418824       -11.3968 
  36   2.0000      -0.408996       -11.1293 
  37   2.0000      -0.396621       -10.7926 
  38   2.0000      -0.378847       -10.3090 
  39   2.0000      -0.365051        -9.9336 
  40   2.0000      -0.358431        -9.7534 
  41   2.0000      -0.351092        -9.5537 
  42   2.0000      -0.345800        -9.4097 
  43   2.0000      -0.330670        -8.9980 
  44   2.0000      -0.319391        -8.6911 
  45   2.0000      -0.308601        -8.3974 
  46   2.0000      -0.300442        -8.1754 
  47   2.0000      -0.274334        -7.4650 
  48   2.0000      -0.262933        -7.1548 
  49   2.0000      -0.251890        -6.8543 
  50   2.0000      -0.232772        -6.3340 
  51   0.0000       0.048548         1.3211 
  52   0.0000       0.077572         2.1108 
  53   0.0000       0.083693         2.2774 
  54   0.0000       0.089079         2.4240 
  55   0.0000       0.103582         2.8186 
  56   0.0000       0.111564         3.0358 
  57   0.0000       0.119290         3.2460 
  58   0.0000       0.129391         3.5209 
  59   0.0000       0.137171         3.7326 
  60   0.0000       0.151238         4.1154 
  61   0.0000       0.153760         4.1840 
  62   0.0000       0.157073         4.2742 
  63   0.0000       0.158897         4.3238 
  64   0.0000       0.161841         4.4039 
  65   0.0000       0.170192         4.6311 
  66   0.0000       0.176785         4.8106 
  67   0.0000       0.186907         5.0860 
  68   0.0000       0.197345         5.3700 
  69   0.0000       0.201997         5.4966 
  70   0.0000       0.217518         5.9190 
  71   0.0000       0.227233         6.1833 
  72   0.0000       0.236905         6.4465 
  73   0.0000       0.247198         6.7266 
  74   0.0000       0.257230         6.9996 
  75   0.0000       0.263908         7.1813 
  76   0.0000       0.272249         7.4083 
  77   0.0000       0.280890         7.6434 
  78   0.0000       0.295504         8.0411 
  79   0.0000       0.297930         8.1071 
  80   0.0000       0.317385         8.6365 
  81   0.0000       0.518332        14.1045 
  82   0.0000       0.534676        14.5493 
  83   0.0000       0.540377        14.7044 
  84   0.0000       0.556091        15.1320 
  85   0.0000       0.558711        15.2033 
  86   0.0000       0.562538        15.3074 
  87   0.0000       0.581628        15.8269 
  88   0.0000       0.584101        15.8942 
  89   0.0000       0.592091        16.1116 
  90   0.0000       0.598218        16.2783 
  91   0.0000       0.605053        16.4643 
  92   0.0000       0.623203        16.9582 
  93   0.0000       0.636119        17.3097 
  94   0.0000       0.644006        17.5243 
  95   0.0000       0.650715        17.7069 
  96   0.0000       0.663479        18.0542 
  97   0.0000       0.669433        18.2162 
  98   0.0000       0.682214        18.5640 
  99   0.0000       0.705116        19.1872 
 100   0.0000       0.730689        19.8831 
 101   0.0000       0.758705        20.6454 
 102   0.0000       0.802097        21.8262 
 103   0.0000       0.811552        22.0834 
 104   0.0000       0.825721        22.4690 
 105   0.0000       0.834839        22.7171 
 106   0.0000       0.842464        22.9246 
 107   0.0000       0.853197        23.2167 
 108   0.0000       0.857228        23.3264 
 109   0.0000       0.867684        23.6109 
 110   0.0000       0.878185        23.8966 
 111   0.0000       0.888264        24.1709 
 112   0.0000       0.896473        24.3943 
 113   0.0000       0.904774        24.6202 
 114   0.0000       0.919721        25.0269 
 115   0.0000       0.928433        25.2640 
 116   0.0000       0.940209        25.5844 
 117   0.0000       0.944002        25.6876 
 118   0.0000       0.951345        25.8874 
 119   0.0000       0.960528        26.1373 
 120   0.0000       0.964644        26.2493 
 121   0.0000       0.998726        27.1767 
 122   0.0000       1.005392        27.3581 
 123   0.0000       1.019718        27.7479 
 124   0.0000       1.026573        27.9345 
 125   0.0000       1.062078        28.9006 
 126   0.0000       1.072403        29.1816 
 127   0.0000       1.095700        29.8155 
 128   0.0000       1.132681        30.8218 
 129   0.0000       1.174325        31.9550 
 130   0.0000       1.181785        32.1580 
 131   0.0000       1.233172        33.5563 
 132   0.0000       1.262680        34.3593 
 133   0.0000       1.302433        35.4410 
 134   0.0000       1.352161        36.7942 
 135   0.0000       1.373722        37.3809 
 136   0.0000       1.377136        37.4738 
 137   0.0000       1.401754        38.1437 
 138   0.0000       1.447986        39.4017 
 139   0.0000       1.480602        40.2892 
 140   0.0000       1.520300        41.3695 
 141   0.0000       1.580634        43.0112 
 142   0.0000       1.641110        44.6569 
 143   0.0000       1.671629        45.4873 
 144   0.0000       1.816548        49.4308 
 145   0.0000       1.877740        51.0959 
 146   0.0000       1.965480        53.4834 
 147   0.0000       2.024955        55.1018 
 148   0.0000       2.135329        58.1053 

                    ********************************
                    * MULLIKEN POPULATION ANALYSIS *
                    ********************************

-----------------------
MULLIKEN ATOMIC CHARGES
-----------------------
   0 C :    0.281015
   1 C :   -0.255692
   2 C :   -0.301394
   3 C :   -0.000588
   4 O :   -0.502865
   5 H :    0.137642
   6 H :    0.139735
   7 H :    0.149373
   8 H :    0.138875
   9 H :    0.171878
  10 H :    0.152277
  11 H :    0.138466
  12 C :   -0.017108
  13 H :    0.126291
  14 H :    0.139653
  15 O :   -0.501236
  16 C :    0.094051
  17 C :    0.081353
  18 C :   -0.322564
  19 C :   -0.013935
  20 O :   -0.504525
  21 H :    0.151014
  22 H :    0.169586
  23 O :   -0.601303
  24 H :    0.158704
  25 H :    0.132983
  26 H :    0.150520
  27 H :    0.150672
  28 H :    0.357117
Sum of atomic charges:   -0.0000000

--------------------------------
MULLIKEN REDUCED ORBITAL CHARGES
--------------------------------
  0 C s       :     3.201807  s :     3.201807
      pz      :     0.813136  p :     2.517177
      px      :     0.687610
      py      :     1.016431
  1 C s       :     3.299056  s :     3.299056
      pz      :     0.986119  p :     2.956637
      px      :     1.033002
      py      :     0.937515
  2 C s       :     3.316204  s :     3.316204
      pz      :     0.905623  p :     2.985189
      px      :     1.090241
      py      :     0.989325
  3 C s       :     3.261893  s :     3.261893
      pz      :     0.936023  p :     2.738694
      px      :     1.062334
      py      :     0.740338
  4 O s       :     3.938454  s :     3.938454
      pz      :     1.294764  p :     4.564411
      px      :     1.748329
      py      :     1.521317
  5 H s       :     0.862358  s :     0.862358
  6 H s       :     0.860265  s :     0.860265
  7 H s       :     0.850627  s :     0.850627
  8 H s       :     0.861125  s :     0.861125
  9 H s       :     0.828122  s :     0.828122
 10 H s       :     0.847723  s :     0.847723
 11 H s       :     0.861534  s :     0.861534
 12 C s       :     3.259242  s :     3.259242
      pz      :     0.861157  p :     2.757865
      px      :     0.945932
      py      :     0.950776
 13 H s       :     0.873709  s :     0.873709
 14 H s       :     0.860347  s :     0.860347
 15 O s       :     3.917463  s :     3.917463
      pz      :     1.583627  p :     4.583774
      px      :     1.237143
      py      :     1.763004
 16 C s       :     3.254083  s :     3.254083
      pz      :     0.880064  p :     2.651866
      px      :     0.912136
      py      :     0.859666
 17 C s       :     3.249590  s :     3.249590
      pz      :     0.969145  p :     2.669057
      px      :     0.900957
      py      :     0.798954
 18 C s       :     3.322687  s :     3.322687
      pz      :     0.999228  p :     2.999876
      px      :     1.008568
      py      :     0.992080
 19 C s       :     3.265928  s :     3.265928
      pz      :     1.050811  p :     2.748008
      px      :     0.729269
      py      :     0.967927
 20 O s       :     3.946170  s :     3.946170
      pz      :     1.764343  p :     4.558354
      px      :     1.191915
      py      :     1.602096
 21 H s       :     0.848986  s :     0.848986
 22 H s       :     0.830414  s :     0.830414
 23 O s       :     3.920244  s :     3.920244
      pz      :     1.634090  p :     4.681059
      px      :     1.846346
      py      :     1.200623
 24 H s       :     0.841296  s :     0.841296
 25 H s       :     0.867017  s :     0.867017
 26 H s       :     0.849480  s :     0.849480
 27 H s       :     0.849328  s :     0.849328
 28 H s       :     0.642883  s :     0.642883


                     *******************************
                     * LOEWDIN POPULATION ANALYSIS *
                     *******************************

----------------------
LOEWDIN ATOMIC CHARGES
----------------------
   0 C :    0.176765
   1 C :   -0.224422
   2 C :   -0.216809
   3 C :   -0.025819
   4 O :   -0.312292
   5 H :    0.095670
   6 H :    0.110930
   7 H :    0.117253
   8 H :    0.112971
   9 H :    0.124128
  10 H :    0.108313
  11 H :    0.100550
  12 C :   -0.045903
  13 H :    0.097140
  14 H :    0.102897
  15 O :   -0.319647
  16 C :    0.011343
  17 C :    0.032587
  18 C :   -0.240424
  19 C :   -0.030221
  20 O :   -0.314832
  21 H :    0.110834
  22 H :    0.119874
  23 O :   -0.408706
  24 H :    0.123035
  25 H :    0.103882
  26 H :    0.105912
  27 H :    0.106351
  28 H :    0.278640

-------------------------------
LOEWDIN REDUCED ORBITAL CHARGES
-------------------------------
  0 C s       :     2.954377  s :     2.954377
      pz      :     0.931798  p :     2.868858
      px      :     0.847162
      py      :     1.089898
  1 C s       :     2.980598  s :     2.980598
      pz      :     1.076810  p :     3.243823
      px      :     1.110035
      py      :     1.056977
  2 C s       :     2.971284  s :     2.971284
      pz      :     1.030064  p :     3.245525
      px      :     1.135872
      py      :     1.079588
  3 C s       :     2.984333  s :     2.984333
      pz      :     1.035121  p :     3.041486
      px      :     1.124899
      py      :     0.881465
  4 O s       :     3.596618  s :     3.596618
      pz      :     1.364711  p :     4.715674
      px      :     1.782728
      py      :     1.568235
  5 H s       :     0.904330  s :     0.904330
  6 H s       :     0.889070  s :     0.889070
  7 H s       :     0.882747  s :     0.882747
  8 H s       :     0.887029  s :     0.887029
  9 H s       :     0.875872  s :     0.875872
 10 H s       :     0.891687  s :     0.891687
 11 H s       :     0.899450  s :     0.899450
 12 C s       :     2.976529  s :     2.976529
      pz      :     0.981665  p :     3.069374
      px      :     1.033725
      py      :     1.053983
 13 H s       :     0.902860  s :     0.902860
 14 H s       :     0.897103  s :     0.897103
 15 O s       :     3.583461  s :     3.583461
      pz      :     1.628534  p :     4.736185
      px      :     1.311011
      py      :     1.796641
 16 C s       :     2.965163  s :     2.965163
      pz      :     1.006338  p :     3.023494
      px      :     1.023921
      py      :     0.993236
 17 C s       :     2.952039  s :     2.952039
      pz      :     1.066814  p :     3.015374
      px      :     1.025072
      py      :     0.923488
 18 C s       :     2.982806  s :     2.982806
      pz      :     1.084543  p :     3.257618
      px      :     1.086009
      py      :     1.087066
 19 C s       :     2.981249  s :     2.981249
      pz      :     1.116189  p :     3.048972
      px      :     0.863739
      py      :     1.069044
 20 O s       :     3.602107  s :     3.602107
      pz      :     1.794848  p :     4.712725
      px      :     1.266777
      py      :     1.651100
 21 H s       :     0.889166  s :     0.889166
 22 H s       :     0.880126  s :     0.880126
 23 O s       :     3.608624  s :     3.608624
      pz      :     1.673899  p :     4.800082
      px      :     1.862202
      py      :     1.263981
 24 H s       :     0.876965  s :     0.876965
 25 H s       :     0.896118  s :     0.896118
 26 H s       :     0.894088  s :     0.894088
 27 H s       :     0.893649  s :     0.893649
 28 H s       :     0.721360  s :     0.721360


                      *****************************
                      * MAYER POPULATION ANALYSIS *
                      *****************************

  NA   - Mulliken gross atomic population
  ZA   - Total nuclear charge
  QA   - Mulliken gross atomic charge
  VA   - Mayer's total valence
  BVA  - Mayer's bonded valence
  FA   - Mayer's free valence

  ATOM       NA         ZA         QA         VA         BVA        FA
  0 C      5.7190     6.0000     0.2810     3.6818     3.6818    -0.0000
  1 C      6.2557     6.0000    -0.2557     3.7233     3.7233     0.0000
  2 C      6.3014     6.0000    -0.3014     3.7656     3.7656     0.0000
  3 C      6.0006     6.0000    -0.0006     3.6600     3.6600     0.0000
  4 O      8.5029     8.0000    -0.5029     1.7966     1.7966     0.0000
  5 H      0.8624     1.0000     0.1376     0.9383     0.9383     0.0000
  6 H      0.8603     1.0000     0.1397     0.9324     0.9324     0.0000
  7 H      0.8506     1.0000     0.1494     0.9416     0.9416     0.0000
  8 H      0.8611     1.0000     0.1389     0.9375     0.9375     0.0000
  9 H      0.8281     1.0000     0.1719     0.9321     0.9321     0.0000
 10 H      0.8477     1.0000     0.1523     0.9260     0.9260     0.0000
 11 H      0.8615     1.0000     0.1385     0.9293     0.9293    -0.0000
 12 C      6.0171     6.0000    -0.0171     3.6364     3.6364    -0.0000
 13 H      0.8737     1.0000     0.1263     0.9494     0.9494     0.0000
 14 H      0.8603     1.0000     0.1397     0.9369     0.9369     0.0000
 15 O      8.5012     8.0000    -0.5012     1.7590     1.7590    -0.0000
 16 C      5.9059     6.0000     0.0941     3.5566     3.5566    -0.0000
 17 C      5.9186     6.0000     0.0814     3.6435     3.6435     0.0000
 18 C      6.3226     6.0000    -0.3226     3.7298     3.7298     0.0000
 19 C      6.0139     6.0000    -0.0139     3.6615     3.6615    -0.0000
 20 O      8.5045     8.0000    -0.5045     1.7810     1.7810    -0.0000
 21 H      0.8490     1.0000     0.1510     0.9365     0.9365     0.0000
 22 H      0.8304     1.0000     0.1696     0.9238     0.9238     0.0000
 23 O      8.6013     8.0000    -0.6013     1.7503     1.7503     0.0000
 24 H      0.8413     1.0000     0.1587     0.9359     0.9359    -0.0000
 25 H      0.8670     1.0000     0.1330     0.9414     0.9414     0.0000
 26 H      0.8495     1.0000     0.1505     0.9240     0.9240     0.0000
 27 H      0.8493     1.0000     0.1507     0.9268     0.9268     0.0000
 28 H      0.6429     1.0000     0.3571     0.8366     0.8366    -0.0000

  Mayer bond orders larger than 0.100000
B(  0-C ,  1-C ) :   0.9375 B(  0-C ,  4-O ) :   0.9342 B(  0-C ,  5-H ) :   0.9160 
B(  0-C , 15-O ) :   0.8436 B(  1-C ,  2-C ) :   0.9565 B(  1-C ,  6-H ) :   0.9353 
B(  1-C ,  7-H ) :   0.9350 B(  2-C ,  3-C ) :   0.9549 B(  2-C ,  8-H ) :   0.9452 
B(  2-C ,  9-H ) :   0.9413 B(  3-C ,  4-O ) :   0.8366 B(  3-C , 10-H ) :   0.9349 
B(  3-C , 11-H ) :   0.9399 B( 12-C , 13-H ) :   0.9035 B( 12-C , 14-H ) :   0.9352 
B( 12-C , 15-O ) :   0.8670 B( 12-C , 16-C ) :   0.8872 B( 16-C , 17-C ) :   0.8699 
B( 16-C , 20-O ) :   0.8731 B( 16-C , 21-H ) :   0.9312 B( 17-C , 18-C ) :   0.9253 
B( 17-C , 22-H ) :   0.9316 B( 17-C , 23-O ) :   0.8940 B( 18-C , 19-C ) :   0.9387 
B( 18-C , 24-H ) :   0.9417 B( 18-C , 25-H ) :   0.9409 B( 19-C , 20-O ) :   0.8486 
B( 19-C , 26-H ) :   0.9305 B( 19-C , 27-H ) :   0.9372 B( 23-O , 28-H ) :   0.7982 


-------
TIMINGS
-------

Total SCF time: 0 days 0 hours 1 min 5 sec 

Total time                  ....      65.015 sec
Sum of individual times     ....      63.757 sec  ( 98.1%)

Fock matrix formation       ....      58.860 sec  ( 90.5%)
  XC integration            ....      11.026 sec  ( 18.7% of F)
    Basis function eval.    ....       2.169 sec  ( 19.7% of XC)
    Density eval.           ....       0.959 sec  (  8.7% of XC)
    XC-Functional eval.     ....       0.481 sec  (  4.4% of XC)
    XC-Potential eval.      ....       1.166 sec  ( 10.6% of XC)
Diagonalization             ....       0.009 sec  (  0.0%)
Density matrix formation    ....       0.004 sec  (  0.0%)
Population analysis         ....       0.047 sec  (  0.1%)
Initial guess               ....       0.009 sec  (  0.0%)
Orbital Transformation      ....       0.000 sec  (  0.0%)
Orbital Orthonormalization  ....       0.005 sec  (  0.0%)
DIIS solution               ....       0.002 sec  (  0.0%)
SOSCF solution              ....       0.061 sec  (  0.1%)
Grid generation             ....       4.766 sec  (  7.3%)

-------------------------   --------------------
FINAL SINGLE POINT ENERGY      -652.854696587824
-------------------------   --------------------

                                *** OPTIMIZATION RUN DONE ***

                            ***************************************
                            *     ORCA property calculations      *
                            ***************************************

                                    ---------------------
                                    Active property flags
                                    ---------------------
   (+) Dipole Moment


------------------------------------------------------------------------------
                       ORCA ELECTRIC PROPERTIES CALCULATION
------------------------------------------------------------------------------

Dipole Moment Calculation                       ... on
Quadrupole Moment Calculation                   ... off
Polarizability Calculation                      ... off
GBWName                                         ... project_8053/ensemble_225_255.gbw
Electron density file                           ... project_8053/ensemble_225_255.scfp
The origin for moment calculation is the CENTER OF MASS  = (-43.402458, 50.237148 85.874755)

-------------
DIPOLE MOMENT
-------------
                                X             Y             Z
Electronic contribution:     -0.00471      -2.11183      -0.41767
Nuclear contribution   :     -0.51489       2.10133       0.07033
                        -----------------------------------------
Total Dipole Moment    :     -0.51960      -0.01050      -0.34734
                        -----------------------------------------
Magnitude (a.u.)       :      0.62509
Magnitude (Debye)      :      1.58885



--------------------
Rotational spectrum 
--------------------
 
Rotational constants in cm-1:     0.057495     0.012341     0.011441 
Rotational constants in MHz :  1723.655994   369.980760   343.005221 

 Dipole components along the rotational axes: 
x,y,z [a.u.] :    -0.621075     0.065447    -0.026831 
x,y,z [Debye]:    -1.578646     0.166354    -0.068199 

 

Timings for individual modules:

Sum of individual times         ...     1510.843 sec (=  25.181 min)
GTO integral calculation        ...        5.943 sec (=   0.099 min)   0.4 %
SCF iterations                  ...     1164.012 sec (=  19.400 min)  77.0 %
SCF Gradient evaluation         ...      337.727 sec (=   5.629 min)  22.4 %
Geometry relaxation             ...        3.160 sec (=   0.053 min)   0.2 %
                             ****ORCA TERMINATED NORMALLY****
TOTAL RUN TIME: 0 days 0 hours 25 minutes 17 seconds 153 msec
