
                                 *****************
                                 * O   R   C   A *
                                 *****************

           --- An Ab Initio, DFT and Semiempirical electronic structure package ---

                  #######################################################
                  #                        -***-                        #
                  #          Department of theory and spectroscopy      #
                  #               Directorship: Frank Neese             #
                  #        Max Planck Institute fuer Kohlenforschung    #
                  #                Kaiser Wilhelm Platz 1               #
                  #                 D-45470 Muelheim/Ruhr               #
                  #                      Germany                        #
                  #                                                     #
                  #                  All rights reserved                #
                  #                        -***-                        #
                  #######################################################


                         Program Version 4.2.0 -  RELEASE  -


 With contributions from (in alphabetic order):
   Daniel Aravena         : Magnetic Suceptibility
   Michael Atanasov       : Ab Initio Ligand Field Theory (pilot matlab implementation)
   Alexander A. Auer      : GIAO ZORA, VPT2
   Ute Becker             : Parallelization
   Giovanni Bistoni       : ED, misc. LED, open-shell LED, HFLED
   Martin Brehm           : Molecular dynamics
   Dmytro Bykov           : SCF Hessian
   Vijay G. Chilkuri      : MRCI spin determinant printing, contributions to CSF-ICE
   Dipayan Datta          : RHF DLPNO-CCSD density
   Achintya Kumar Dutta   : EOM-CC, STEOM-CC
   Dmitry Ganyushin       : Spin-Orbit,Spin-Spin,Magnetic field MRCI
   Miquel Garcia          : C-PCM Hessian, Gaussian charge scheme
   Yang Guo               : DLPNO-NEVPT2, CIM, IAO-localization
   Andreas Hansen         : Spin unrestricted coupled pair/coupled cluster methods
   Benjamin Helmich-Paris : CASSCF linear response (MC-RPA)
   Lee Huntington         : MR-EOM, pCC
   Robert Izsak           : Overlap fitted RIJCOSX, COSX-SCS-MP3, EOM
   Christian Kollmar      : KDIIS, OOCD, Brueckner-CCSD(T), CCSD density
   Simone Kossmann        : Meta GGA functionals, TD-DFT gradient, OOMP2, MP2 Hessian
   Martin Krupicka        : AUTO-CI
   Lucas Lang             : DCDCAS
   Dagmar Lenk            : GEPOL surface, SMD
   Dimitrios Liakos       : Extrapolation schemes; Compound Job, initial MDCI parallelization
   Dimitrios Manganas     : Further ROCIS development; embedding schemes
   Dimitrios Pantazis     : SARC Basis sets
   Taras Petrenko         : DFT Hessian,TD-DFT gradient, ASA, ECA, R-Raman, ABS, FL, XAS/XES, NRVS
   Peter Pinski           : DLPNO-MP2, DLPNO-MP2 Gradient
   Christoph Reimann      : Effective Core Potentials
   Marius Retegan         : Local ZFS, SOC
   Christoph Riplinger    : Optimizer, TS searches, QM/MM, DLPNO-CCSD(T), (RO)-DLPNO pert. Triples
   Tobias Risthaus        : Range-separated hybrids, TD-DFT gradient, RPA, STAB
   Michael Roemelt        : Original ROCIS implementation
   Masaaki Saitow         : Open-shell DLPNO-CCSD energy and density
   Barbara Sandhoefer     : DKH picture change effects
   Avijit Sen             : IP-ROCIS
   Kantharuban Sivalingam : CASSCF convergence, NEVPT2, FIC-MRCI
   Bernardo de Souza      : ESD, SOC TD-DFT
   Georgi Stoychev        : AutoAux, RI-MP2 NMR
   Willem Van den Heuvel  : Paramagnetic NMR
   Boris Wezisla          : Elementary symmetry handling
   Frank Wennmohs         : Technical directorship


 We gratefully acknowledge several colleagues who have allowed us to
 interface, adapt or use parts of their codes:
   Stefan Grimme, W. Hujo, H. Kruse,             : VdW corrections, initial TS optimization,
                  C. Bannwarth                     DFT functionals, gCP, sTDA/sTD-DF
   Ed Valeev, F. Pavosevic, A. Kumar             : LibInt (2-el integral package), F12 methods
   Garnet Chan, S. Sharma, J. Yang, R. Olivares  : DMRG
   Ulf Ekstrom                                   : XCFun DFT Library
   Mihaly Kallay                                 : mrcc  (arbitrary order and MRCC methods)
   Andreas Klamt, Michael Diedenhofen            : otool_cosmo (COSMO solvation model)
   Jiri Pittner, Ondrej Demel                    : Mk-CCSD
   Frank Weinhold                                : gennbo (NPA and NBO analysis)
   Christopher J. Cramer and Donald G. Truhlar   : smd solvation model
   Lars Goerigk                                  : TD-DFT with DH, B97 family of functionals
   V. Asgeirsson, H. Jonsson                     : NEB implementation
   FAccTs GmbH                                   : IRC, NEB, NEB-TS, Multilevel, MM, QM/MM, CI optimization
   S Lehtola, MJT Oliveira, MAL Marques          : LibXC Library


 Your calculation uses the libint2 library for the computation of 2-el integrals
 For citations please refer to: http://libint.valeyev.net

 Your ORCA version has been built with support for libXC version: 4.2.3
 For citations please refer to: https://tddft.org/programs/libxc/

 This ORCA versions uses:
   CBLAS   interface :  Fast vector & matrix operations
   LAPACKE interface :  Fast linear algebra routines
   SCALAPACK package :  Parallel linear algebra routines


----- Orbital basis set information -----
Your calculation utilizes the basis: 6-31G
   H-He, Li-Ne : W. J. Hehre, R. Ditchfield and J.A. Pople, J. Chem. Phys. 56, 2257 (1972).
                 Note: He and Ne are unpublished basis sets taken from the Gaussian program.
                 Note: Li and B from J. D. Dill and J. A. Pople, J. Chem. Phys. 62, 2921 (1975).
   Na - Ar     : M. M. Francl, W. J. Pietro, W. J. Hehre, J. S. Binkley, M. S. Gordon, 
                 D. J. DeFrees and J. A. Pople, J. Chem. Phys. 77, 3654 (1982).
   K - Zn      : V. A. Rassolov, J. A. Pople, M. A. Ratner, and T. L. Windus, J. Chem. Phys. 109, 1223 (1998).

================================================================================
                                        WARNINGS
                       Please study these warnings very carefully!
================================================================================


WARNING: Geometry Optimization
  ===> : Switching off AutoStart
         For restart on a previous wavefunction, please use MOREAD

INFO   : the flag for use of LIBINT has been found!

================================================================================
                                       INPUT FILE
================================================================================
NAME = project_8052/ensemble_180_135.inp
|  1> # Test redundant internal optimization
|  2> #
|  3> ! RKS B3LYP  Opt TightSCF SmallPrint
|  4> 
|  5> %basis
|  6>         Basis "6-31G"
|  7> end
|  8> 
|  9> %geom
| 10> Constraints
| 11> { D 4  0  15  12  180.0   C } # D for Dihedral angle
| 12> { D 0  15  12  16  135.0   C } # D for Dihedral angle
| 13> { D 0  4  3  2   C } # D for Dihedral angle
| 14> { D 4  3  2  1   C } # D for Dihedral angle
| 15> { D 3  2  1  0   C } # D for Dihedral angle
| 16> { D 2  1  0  4   C } # D for Dihedral angle
| 17> { D 1  0  4  3   C } # D for Dihedral angle
| 18> { D 16  20  19  18   C } # D for Dihedral angle
| 19> { D 20  19  18  17   C } # D for Dihedral angle
| 20> { D 19  18  17  16   C } # D for Dihedral angle
| 21> { D 18  17  16  20   C } # D for Dihedral angle
| 22> { D 17  16  20  19   C } # D for Dihedral angle
| 23> { D 15  12  16  20   C } # D for Dihedral angle
| 24> end
| 25> end
| 26> 
| 27> 
| 28> #%pal 
| 29> #nprocs 8
| 30> #end
| 31> 
| 32> * xyz 0 1
| 33> C  -21.048   26.222   46.251
| 34> C  -20.361   27.558   45.944
| 35> C  -20.329   28.222   47.341
| 36> C  -20.110   27.022   48.296
| 37> O  -20.473   25.807   47.535
| 38> H  -20.833   25.428   45.533
| 39> H  -19.344   27.382   45.576
| 40> H  -20.898   28.157   45.201
| 41> H  -19.543   28.978   47.434
| 42> H  -21.289   28.710   47.548
| 43> H  -20.733   27.082   49.195
| 44> H  -19.064   26.913   48.597
| 45> C  -23.309   26.834   45.072
| 46> H  -23.576   27.895   45.147
| 47> H  -22.648   26.707   44.205
| 48> O  -22.586   26.394   46.375
| 49> C  -24.605   26.021   44.801
| 50> C  -25.228   26.400   43.453
| 51> C  -24.340   25.608   42.463
| 52> C  -24.018   24.309   43.243
| 53> O  -24.296   24.593   44.667
| 54> H  -25.278   26.125   45.655
| 55> O  -26.698   25.906   43.387
| 56> H  -25.217   27.479   43.263
| 57> H  -24.840   25.409   41.510
| 58> H  -23.422   26.168   42.250
| 59> H  -22.970   24.005   43.137
| 60> H  -24.661   23.475   42.949
| 61> H  -26.733   24.827   43.574
| 62> *
| 63> 
| 64>                          ****END OF INPUT****
================================================================================

                       *****************************
                       * Geometry Optimization Run *
                       *****************************

Geometry optimization settings:
Update method            Update   .... BFGS
Choice of coordinates    CoordSys .... Z-matrix Internals
Initial Hessian          InHess   .... Almoef's Model

Convergence Tolerances:
Energy Change            TolE     ....  5.0000e-06 Eh
Max. Gradient            TolMAXG  ....  3.0000e-04 Eh/bohr
RMS Gradient             TolRMSG  ....  1.0000e-04 Eh/bohr
Max. Displacement        TolMAXD  ....  4.0000e-03 bohr
RMS Displacement         TolRMSD  ....  2.0000e-03 bohr
Strict Convergence                ....  False
------------------------------------------------------------------------------
                        ORCA OPTIMIZATION COORDINATE SETUP
------------------------------------------------------------------------------

The optimization will be done in new redundant internal coordinates
Making redundant internal coordinates   ...  (new redundants) done
Evaluating the initial hessian          ...  (Almloef) done
Evaluating the coordinates              ...  done
Calculating the B-matrix                .... done
Calculating the G-matrix                .... done
Diagonalizing the G-matrix              .... done
Imposing constraints:
 Iter   0:  RMS(Cart)=    0.0001515306 RMS(Int)=    0.0000482966
 Iter   1:  RMS(Cart)=    0.0000762220 RMS(Int)=    0.0000262294
 Iter   2:  RMS(Cart)=    0.0000399175 RMS(Int)=    0.0000155616
 Iter   3:  RMS(Cart)=    0.0000219177 RMS(Int)=    0.0000102248
 Iter   4:  RMS(Cart)=    0.0000126692 RMS(Int)=    0.0000074454
 Iter   5:  RMS(Cart)=    0.0000077155 RMS(Int)=    0.0000059428
 Iter   6:  RMS(Cart)=    0.0000049451 RMS(Int)=    0.0000051014
 Iter   7:  RMS(Cart)=    0.0000033337 RMS(Int)=    0.0000046077
 Iter   8:  RMS(Cart)=    0.0000023674 RMS(Int)=    0.0000042970
 Iter   9:  RMS(Cart)=    0.0000017759 RMS(Int)=    0.0000040826
 Iter  10:  RMS(Cart)=    0.0000014094 RMS(Int)=    0.0000039190
 Iter  11:  RMS(Cart)=    0.0000011794 RMS(Int)=    0.0000037832
 Iter  12:  RMS(Cart)=    0.0000010322 RMS(Int)=    0.0000036630
 Iter  13:  RMS(Cart)=    0.0000009345 RMS(Int)=    0.0000035524
 Iter  14:  RMS(Cart)=    0.0000008664 RMS(Int)=    0.0000034482
 Iter  15:  RMS(Cart)=    0.0000008160 RMS(Int)=    0.0000033488
 Iter  16:  RMS(Cart)=    0.0000007764 RMS(Int)=    0.0000032532
 Iter  17:  RMS(Cart)=    0.0000007436 RMS(Int)=    0.0000031611
 Iter  18:  RMS(Cart)=    0.0000007153 RMS(Int)=    0.0000030720
 Iter  19:  RMS(Cart)=    0.0000006900 RMS(Int)=    0.0000029858
 Iter  20:  RMS(Cart)=    0.0000006669 RMS(Int)=    0.0000029023
 Iter  21:  RMS(Cart)=    0.0000006453 RMS(Int)=    0.0000028215
 Iter  22:  RMS(Cart)=    0.0000006250 RMS(Int)=    0.0000027432
 Iter  23:  RMS(Cart)=    0.0000006058 RMS(Int)=    0.0000026673
 Iter  24:  RMS(Cart)=    0.0000005874 RMS(Int)=    0.0000025937
 Iter  25:  RMS(Cart)=    0.0000005698 RMS(Int)=    0.0000025225
 Iter  26:  RMS(Cart)=    0.0000005528 RMS(Int)=    0.0000024534
 Iter  27:  RMS(Cart)=    0.0000005365 RMS(Int)=    0.0000023864
 Iter  28:  RMS(Cart)=    0.0000005207 RMS(Int)=    0.0000023215
 Iter  29:  RMS(Cart)=    0.0000005055 RMS(Int)=    0.0000022586
 Iter  30:  RMS(Cart)=    0.0000004907 RMS(Int)=    0.0000021976
 Iter  31:  RMS(Cart)=    0.0000004765 RMS(Int)=    0.0000021384
 Iter  32:  RMS(Cart)=    0.0000004627 RMS(Int)=    0.0000020810
 Iter  33:  RMS(Cart)=    0.0000004493 RMS(Int)=    0.0000020254
 Iter  34:  RMS(Cart)=    0.0000004364 RMS(Int)=    0.0000019714
 Iter  35:  RMS(Cart)=    0.0000004238 RMS(Int)=    0.0000019191
 Iter  36:  RMS(Cart)=    0.0000004117 RMS(Int)=    0.0000018683
 Iter  37:  RMS(Cart)=    0.0000003999 RMS(Int)=    0.0000018191
 Iter  38:  RMS(Cart)=    0.0000003885 RMS(Int)=    0.0000017713
 Iter  39:  RMS(Cart)=    0.0000003775 RMS(Int)=    0.0000017250
 Iter  40:  RMS(Cart)=    0.0000003667 RMS(Int)=    0.0000016800
 Iter  41:  RMS(Cart)=    0.0000003563 RMS(Int)=    0.0000016364
 Iter  42:  RMS(Cart)=    0.0000003463 RMS(Int)=    0.0000015940
 Iter  43:  RMS(Cart)=    0.0000003365 RMS(Int)=    0.0000015530
 Iter  44:  RMS(Cart)=    0.0000003271 RMS(Int)=    0.0000015131
 Iter  45:  RMS(Cart)=    0.0000003179 RMS(Int)=    0.0000014744
 Iter  46:  RMS(Cart)=    0.0000003090 RMS(Int)=    0.0000014368
 Iter  47:  RMS(Cart)=    0.0000003003 RMS(Int)=    0.0000014004
 Iter  48:  RMS(Cart)=    0.0000002920 RMS(Int)=    0.0000013650
 Iter  49:  RMS(Cart)=    0.0000002839 RMS(Int)=    0.0000013306
 Iter  50:  RMS(Cart)=    0.0000002760 RMS(Int)=    0.0000012972
 Iter  51:  RMS(Cart)=    0.0000002683 RMS(Int)=    0.0000012648
 Iter  52:  RMS(Cart)=    0.0000002609 RMS(Int)=    0.0000012334
 Iter  53:  RMS(Cart)=    0.0000002537 RMS(Int)=    0.0000012028
 Iter  54:  RMS(Cart)=    0.0000002468 RMS(Int)=    0.0000011732
 Iter  55:  RMS(Cart)=    0.0000002400 RMS(Int)=    0.0000011443
 Iter  56:  RMS(Cart)=    0.0000002334 RMS(Int)=    0.0000011164
 Iter  57:  RMS(Cart)=    0.0000002271 RMS(Int)=    0.0000010892
 Iter  58:  RMS(Cart)=    0.0000002209 RMS(Int)=    0.0000010628
 Iter  59:  RMS(Cart)=    0.0000002149 RMS(Int)=    0.0000010371
 Iter  60:  RMS(Cart)=    0.0000002091 RMS(Int)=    0.0000010122
 Iter  61:  RMS(Cart)=    0.0000002034 RMS(Int)=    0.0000009880
 Iter  62:  RMS(Cart)=    0.0000001979 RMS(Int)=    0.0000009644
 Iter  63:  RMS(Cart)=    0.0000001926 RMS(Int)=    0.0000009416
 Iter  64:  RMS(Cart)=    0.0000001874 RMS(Int)=    0.0000009193
 Iter  65:  RMS(Cart)=    0.0000001824 RMS(Int)=    0.0000008977
 Iter  66:  RMS(Cart)=    0.0000001776 RMS(Int)=    0.0000008767
 Iter  67:  RMS(Cart)=    0.0000001728 RMS(Int)=    0.0000008563
 Iter  68:  RMS(Cart)=    0.0000001682 RMS(Int)=    0.0000008365
 Iter  69:  RMS(Cart)=    0.0000001638 RMS(Int)=    0.0000008172
 Iter  70:  RMS(Cart)=    0.0000001594 RMS(Int)=    0.0000007985
 Iter  71:  RMS(Cart)=    0.0000001552 RMS(Int)=    0.0000007802
 Iter  72:  RMS(Cart)=    0.0000001512 RMS(Int)=    0.0000007625
 Iter  73:  RMS(Cart)=    0.0000001472 RMS(Int)=    0.0000007453
 Iter  74:  RMS(Cart)=    0.0000001433 RMS(Int)=    0.0000007285
 Iter  75:  RMS(Cart)=    0.0000001396 RMS(Int)=    0.0000007122
 Iter  76:  RMS(Cart)=    0.0000001360 RMS(Int)=    0.0000006964
 Iter  77:  RMS(Cart)=    0.0000001324 RMS(Int)=    0.0000006809
 Iter  78:  RMS(Cart)=    0.0000001290 RMS(Int)=    0.0000006659
 Iter  79:  RMS(Cart)=    0.0000001257 RMS(Int)=    0.0000006513
 Iter  80:  RMS(Cart)=    0.0000001224 RMS(Int)=    0.0000006371
 Iter  81:  RMS(Cart)=    0.0000001193 RMS(Int)=    0.0000006233
 Iter  82:  RMS(Cart)=    0.0000001162 RMS(Int)=    0.0000006099
 Iter  83:  RMS(Cart)=    0.0000001132 RMS(Int)=    0.0000005968
 Iter  84:  RMS(Cart)=    0.0000001104 RMS(Int)=    0.0000005841
 Iter  85:  RMS(Cart)=    0.0000001076 RMS(Int)=    0.0000005717
 Iter  86:  RMS(Cart)=    0.0000001048 RMS(Int)=    0.0000005596
 Iter  87:  RMS(Cart)=    0.0000001022 RMS(Int)=    0.0000005478
 Iter  88:  RMS(Cart)=    0.0000000996 RMS(Int)=    0.0000005364
 Iter  89:  RMS(Cart)=    0.0000000971 RMS(Int)=    0.0000005253
 Iter  90:  RMS(Cart)=    0.0000000947 RMS(Int)=    0.0000005144
 Iter  91:  RMS(Cart)=    0.0000000923 RMS(Int)=    0.0000005039
 Iter  92:  RMS(Cart)=    0.0000000900 RMS(Int)=    0.0000004936
 Iter  93:  RMS(Cart)=    0.0000000877 RMS(Int)=    0.0000004836
 Iter  94:  RMS(Cart)=    0.0000000856 RMS(Int)=    0.0000004738
 Iter  95:  RMS(Cart)=    0.0000000835 RMS(Int)=    0.0000004643
 Iter  96:  RMS(Cart)=    0.0000000814 RMS(Int)=    0.0000004551
 Iter  97:  RMS(Cart)=    0.0000000794 RMS(Int)=    0.0000004460
 Iter  98:  RMS(Cart)=    0.0000000774 RMS(Int)=    0.0000004372
 Iter  99:  RMS(Cart)=    0.0000000756 RMS(Int)=    0.0000004287
 RMS(Cart) too big - taking linear step, building new B-matrix and trying again
Imposing constraints:
 Iter   0:  RMS(Cart)=    0.0000762198 RMS(Int)=    0.0000262293
 Iter   1:  RMS(Cart)=    0.0000399165 RMS(Int)=    0.0000155614
 Iter   2:  RMS(Cart)=    0.0000219172 RMS(Int)=    0.0000102245
 Iter   3:  RMS(Cart)=    0.0000126689 RMS(Int)=    0.0000074451
 Iter   4:  RMS(Cart)=    0.0000077153 RMS(Int)=    0.0000059426
 Iter   5:  RMS(Cart)=    0.0000049450 RMS(Int)=    0.0000051011
 Iter   6:  RMS(Cart)=    0.0000033337 RMS(Int)=    0.0000046074
 Iter   7:  RMS(Cart)=    0.0000023673 RMS(Int)=    0.0000042968
 Iter   8:  RMS(Cart)=    0.0000017759 RMS(Int)=    0.0000040823
 Iter   9:  RMS(Cart)=    0.0000014093 RMS(Int)=    0.0000039188
 Iter  10:  RMS(Cart)=    0.0000011794 RMS(Int)=    0.0000037829
 Iter  11:  RMS(Cart)=    0.0000010321 RMS(Int)=    0.0000036628
 Iter  12:  RMS(Cart)=    0.0000009345 RMS(Int)=    0.0000035522
 Iter  13:  RMS(Cart)=    0.0000008664 RMS(Int)=    0.0000034480
 Iter  14:  RMS(Cart)=    0.0000008160 RMS(Int)=    0.0000033486
 Iter  15:  RMS(Cart)=    0.0000007764 RMS(Int)=    0.0000032530
 Iter  16:  RMS(Cart)=    0.0000007436 RMS(Int)=    0.0000031609
 Iter  17:  RMS(Cart)=    0.0000007153 RMS(Int)=    0.0000030718
 Iter  18:  RMS(Cart)=    0.0000006900 RMS(Int)=    0.0000029856
 Iter  19:  RMS(Cart)=    0.0000006668 RMS(Int)=    0.0000029021
 Iter  20:  RMS(Cart)=    0.0000006453 RMS(Int)=    0.0000028213
 Iter  21:  RMS(Cart)=    0.0000006250 RMS(Int)=    0.0000027430
 Iter  22:  RMS(Cart)=    0.0000006058 RMS(Int)=    0.0000026671
 Iter  23:  RMS(Cart)=    0.0000005874 RMS(Int)=    0.0000025936
 Iter  24:  RMS(Cart)=    0.0000005697 RMS(Int)=    0.0000025223
 Iter  25:  RMS(Cart)=    0.0000005528 RMS(Int)=    0.0000024532
 Iter  26:  RMS(Cart)=    0.0000005364 RMS(Int)=    0.0000023863
 Iter  27:  RMS(Cart)=    0.0000005207 RMS(Int)=    0.0000023213
 Iter  28:  RMS(Cart)=    0.0000005054 RMS(Int)=    0.0000022584
 Iter  29:  RMS(Cart)=    0.0000004907 RMS(Int)=    0.0000021974
 Iter  30:  RMS(Cart)=    0.0000004764 RMS(Int)=    0.0000021382
 Iter  31:  RMS(Cart)=    0.0000004626 RMS(Int)=    0.0000020809
 Iter  32:  RMS(Cart)=    0.0000004493 RMS(Int)=    0.0000020252
 Iter  33:  RMS(Cart)=    0.0000004363 RMS(Int)=    0.0000019713
 Iter  34:  RMS(Cart)=    0.0000004238 RMS(Int)=    0.0000019190
 Iter  35:  RMS(Cart)=    0.0000004117 RMS(Int)=    0.0000018682
 Iter  36:  RMS(Cart)=    0.0000003999 RMS(Int)=    0.0000018190
 Iter  37:  RMS(Cart)=    0.0000003885 RMS(Int)=    0.0000017712
 Iter  38:  RMS(Cart)=    0.0000003774 RMS(Int)=    0.0000017248
 Iter  39:  RMS(Cart)=    0.0000003667 RMS(Int)=    0.0000016799
 Iter  40:  RMS(Cart)=    0.0000003563 RMS(Int)=    0.0000016363
 Iter  41:  RMS(Cart)=    0.0000003463 RMS(Int)=    0.0000015939
 Iter  42:  RMS(Cart)=    0.0000003365 RMS(Int)=    0.0000015528
 Iter  43:  RMS(Cart)=    0.0000003270 RMS(Int)=    0.0000015130
 Iter  44:  RMS(Cart)=    0.0000003179 RMS(Int)=    0.0000014743
 Iter  45:  RMS(Cart)=    0.0000003090 RMS(Int)=    0.0000014367
 Iter  46:  RMS(Cart)=    0.0000003003 RMS(Int)=    0.0000014002
 Iter  47:  RMS(Cart)=    0.0000002920 RMS(Int)=    0.0000013648
 Iter  48:  RMS(Cart)=    0.0000002838 RMS(Int)=    0.0000013305
 Iter  49:  RMS(Cart)=    0.0000002760 RMS(Int)=    0.0000012971
 Iter  50:  RMS(Cart)=    0.0000002683 RMS(Int)=    0.0000012647
 Iter  51:  RMS(Cart)=    0.0000002609 RMS(Int)=    0.0000012333
 Iter  52:  RMS(Cart)=    0.0000002537 RMS(Int)=    0.0000012027
 Iter  53:  RMS(Cart)=    0.0000002468 RMS(Int)=    0.0000011731
 Iter  54:  RMS(Cart)=    0.0000002400 RMS(Int)=    0.0000011442
 Iter  55:  RMS(Cart)=    0.0000002334 RMS(Int)=    0.0000011163
 Iter  56:  RMS(Cart)=    0.0000002271 RMS(Int)=    0.0000010891
 Iter  57:  RMS(Cart)=    0.0000002209 RMS(Int)=    0.0000010627
 Iter  58:  RMS(Cart)=    0.0000002149 RMS(Int)=    0.0000010370
 Iter  59:  RMS(Cart)=    0.0000002091 RMS(Int)=    0.0000010121
 Iter  60:  RMS(Cart)=    0.0000002034 RMS(Int)=    0.0000009879
CONVERGED
Small eigenvalue found = 7.433e-03
Small eigenvalue found = 1.644e-02
Small eigenvalue found = 1.679e-02
The first mode is                       ....   91
The number of degrees of freedom        ....   81
Storing new coordinates                 .... done

    -----------------------------------------------------------------
                    Redundant Internal Coordinates


    -----------------------------------------------------------------
         Definition                    Initial Value    Approx d2E/dq
    -----------------------------------------------------------------
      1. B(C   1,C   0)                  1.5333         0.369027   
      2. B(C   2,C   1)                  1.5471         0.350825   
      3. B(C   3,C   2)                  1.5492         0.348147   
      4. B(O   4,C   0)                  1.4668         0.422031   
      5. B(O   4,C   3)                  1.4789         0.403699   
      6. B(H   5,C   0)                  1.0919         0.357632   
      7. B(H   6,C   1)                  1.0958         0.352561   
      8. B(H   7,C   1)                  1.0951         0.353431   
      9. B(H   8,C   2)                  1.0945         0.354166   
     10. B(H   9,C   2)                  1.0966         0.351438   
     11. B(H  10,C   3)                  1.0954         0.353010   
     12. B(H  11,C   3)                  1.0939         0.354989   
     13. B(H  13,C  12)                  1.0966         0.351413   
     14. B(H  14,C  12)                  1.0976         0.350177   
     15. B(O  15,C   0)                  1.5525         0.307993   
     16. B(O  15,C  12)                  1.5537         0.306636   
     17. B(C  16,C  12)                  1.5537         0.342408   
     18. B(C  17,C  16)                  1.5326         0.370019   
     19. B(C  18,C  17)                  1.5479         0.349835   
     20. B(C  19,C  18)                  1.5490         0.348354   
     21. B(O  20,C  16)                  1.4672         0.421442   
     22. B(O  20,C  19)                  1.4784         0.404401   
     23. B(H  21,C  16)                  1.0923         0.357105   
     24. B(O  22,C  17)                  1.5522         0.308399   
     25. B(H  23,C  17)                  1.0957         0.352695   
     26. B(H  24,C  18)                  1.0944         0.354267   
     27. B(H  25,C  18)                  1.0962         0.351968   
     28. B(H  26,C  19)                  1.0963         0.351813   
     29. B(H  27,C  19)                  1.0934         0.355680   
     30. B(H  28,O  22)                  1.0956         0.315905   
     31. A(O   4,C   0,H   5)          107.0169         0.328541   
     32. A(C   1,C   0,O  15)          111.3059         0.348740   
     33. A(C   1,C   0,O   4)          104.2508         0.367935   
     34. A(O   4,C   0,O  15)          110.4723         0.354548   
     35. A(C   1,C   0,H   5)          114.4405         0.323302   
     36. A(H   5,C   0,O  15)          109.1543         0.312058   
     37. A(C   0,C   1,C   2)          101.6783         0.358729   
     38. A(C   2,C   1,H   7)          112.8333         0.320016   
     39. A(C   2,C   1,H   6)          110.6702         0.319888   
     40. A(C   0,C   1,H   6)          110.0681         0.322546   
     41. A(H   6,C   1,H   7)          108.3679         0.289027   
     42. A(C   0,C   1,H   7)          113.1246         0.322677   
     43. A(C   1,C   2,H   8)          112.8313         0.320125   
     44. A(C   1,C   2,C   3)          103.1285         0.355196   
     45. A(C   1,C   2,H   9)          110.0795         0.319721   
     46. A(C   3,C   2,H   9)          110.6147         0.319321   
     47. A(C   3,C   2,H   8)          112.4033         0.319725   
     48. A(H   8,C   2,H   9)          107.7731         0.288977   
     49. A(O   4,C   3,H  10)          109.1301         0.325449   
     50. A(C   2,C   3,H  10)          112.5254         0.319554   
     51. A(C   2,C   3,O   4)          106.5268         0.361529   
     52. A(O   4,C   3,H  11)          107.1239         0.325748   
     53. A(H  10,C   3,H  11)          108.8727         0.289284   
     54. A(C   2,C   3,H  11)          112.4569         0.319846   
     55. A(C   0,O   4,C   3)          108.3129         0.371320   
     56. A(H  14,C  12,C  16)          107.7052         0.318270   
     57. A(H  13,C  12,H  14)          108.2153         0.288461   
     58. A(H  13,C  12,O  15)          109.2654         0.310952   
     59. A(H  14,C  12,O  15)          110.4508         0.310775   
     60. A(O  15,C  12,C  16)          112.7205         0.344121   
     61. A(H  13,C  12,C  16)          108.3599         0.318453   
     62. A(C   0,O  15,C  12)          115.1734         0.336028   
     63. A(C  12,C  16,C  17)          111.2904         0.357413   
     64. A(C  12,C  16,O  20)          110.4593         0.363162   
     65. A(C  17,C  16,O  20)          104.2395         0.368016   
     66. A(C  12,C  16,H  21)          109.1318         0.319289   
     67. A(C  17,C  16,H  21)          114.4361         0.323366   
     68. A(O  20,C  16,H  21)          107.0876         0.328386   
     69. A(C  16,C  17,C  18)          101.7013         0.358720   
     70. A(C  16,C  17,O  22)          110.1007         0.348976   
     71. A(C  18,C  17,O  22)          110.6876         0.345696   
     72. A(C  16,C  17,H  23)          113.0776         0.322708   
     73. A(C  18,C  17,H  23)          112.7819         0.319760   
     74. A(O  22,C  17,H  23)          108.3944         0.311423   
     75. A(C  17,C  18,C  19)          103.0783         0.355062   
     76. A(C  17,C  18,H  24)          112.8220         0.319992   
     77. A(C  19,C  18,H  24)          112.3926         0.319771   
     78. A(C  17,C  18,H  25)          110.0787         0.319652   
     79. A(C  19,C  18,H  25)          110.6191         0.319431   
     80. A(H  24,C  18,H  25)          107.8348         0.289058   
     81. A(C  18,C  19,O  20)          106.5485         0.361673   
     82. A(C  18,C  19,H  26)          112.4919         0.319408   
     83. A(O  20,C  19,H  26)          109.0348         0.325360   
     84. A(C  18,C  19,H  27)          112.4586         0.319979   
     85. A(O  20,C  19,H  27)          107.1541         0.325945   
     86. A(H  26,C  19,H  27)          108.9448         0.289218   
     87. A(C  16,O  20,C  19)          108.3327         0.371342   
     88. A(C  17,O  22,H  28)          109.6590         0.303418   
     89. D(H   7,C   1,C   0,H   5)     82.1534         0.010890   
     90. D(C   2,C   1,C   0,O  15)     79.0886         0.010890   
     91. D(H   7,C   1,C   0,O  15)    -42.1860         0.010890   
     92. D(H   6,C   1,C   0,O   4)     77.3246         0.010890   
     93. D(H   6,C   1,C   0,O  15)   -163.5721         0.010890   
     94. D(H   6,C   1,C   0,H   5)    -39.2327         0.010890   
     95. D(H   7,C   1,C   0,O   4)   -161.2893         0.010890   
     96. D(C   2,C   1,C   0,O   4)    -40.0146         0.010890 C 
     97. D(C   2,C   1,C   0,H   5)   -156.5720         0.010890   
     98. D(H   9,C   2,C   1,H   6)    160.0777         0.009912   
     99. D(H   8,C   2,C   1,C   0)    156.5478         0.009912   
    100. D(H   8,C   2,C   1,H   6)     39.6450         0.009912   
    101. D(C   3,C   2,C   1,C   0)     35.0268         0.009912 C 
    102. D(H   8,C   2,C   1,H   7)    -81.9750         0.009912   
    103. D(H   9,C   2,C   1,C   0)    -83.0195         0.009912   
    104. D(C   3,C   2,C   1,H   6)    -81.8760         0.009912   
    105. D(H   9,C   2,C   1,H   7)     38.4577         0.009912   
    106. D(C   3,C   2,C   1,H   7)    156.5040         0.009912   
    107. D(H  11,C   3,C   2,H   9)   -143.4627         0.009774   
    108. D(O   4,C   3,C   2,H   8)   -140.0068         0.009774   
    109. D(O   4,C   3,C   2,H   9)     99.4741         0.009774   
    110. D(H  10,C   3,C   2,C   1)   -137.7432         0.009774   
    111. D(H  10,C   3,C   2,H   8)    100.4467         0.009774   
    112. D(H  10,C   3,C   2,H   9)    -20.0724         0.009774   
    113. D(H  11,C   3,C   2,C   1)     98.8666         0.009774   
    114. D(O   4,C   3,C   2,C   1)    -18.1967         0.009774 C 
    115. D(H  11,C   3,C   2,H   8)    -22.9435         0.009774   
    116. D(C   3,O   4,C   0,C   1)     29.5920         0.014035 C 
    117. D(C   3,O   4,C   0,H   5)    151.2039         0.014035   
    118. D(C   3,O   4,C   0,O  15)    -90.0762         0.014035   
    119. D(C   0,O   4,C   3,C   2)     -6.8730         0.012866 C 
    120. D(C   0,O   4,C   3,H  10)    114.8547         0.012866   
    121. D(C   0,O   4,C   3,H  11)   -127.4270         0.012866   
    122. D(C   0,O  15,C  12,C  16)    135.0000         0.007733 C 
    123. D(C  12,O  15,C   0,O   4)    180.0000         0.007793 C 
    124. D(C  12,O  15,C   0,H   5)    -62.5893         0.007793   
    125. D(C   0,O  15,C  12,H  14)     14.4673         0.007733   
    126. D(C   0,O  15,C  12,H  13)   -104.4629         0.007733   
    127. D(C  12,O  15,C   0,C   1)     64.6822         0.007793   
    128. D(C  17,C  16,C  12,H  13)     63.6532         0.009481   
    129. D(H  21,C  16,C  12,H  14)    179.5642         0.009481   
    130. D(C  17,C  16,C  12,O  15)   -175.2922         0.009481   
    131. D(O  20,C  16,C  12,H  13)    178.9400         0.009481   
    132. D(O  20,C  16,C  12,H  14)     62.0886         0.009481   
    133. D(O  20,C  16,C  12,O  15)    -60.0053         0.009481 C 
    134. D(C  17,C  16,C  12,H  14)    -53.1983         0.009481   
    135. D(H  21,C  16,C  12,H  13)    -63.5843         0.009481   
    136. D(H  21,C  16,C  12,O  15)     57.4703         0.009481   
    137. D(C  18,C  17,C  16,C  12)     79.0782         0.010945   
    138. D(C  18,C  17,C  16,O  20)    -39.9952         0.010945 C 
    139. D(C  18,C  17,C  16,H  21)   -156.6288         0.010945   
    140. D(O  22,C  17,C  16,C  12)   -163.5370         0.010945   
    141. D(O  22,C  17,C  16,O  20)     77.3896         0.010945   
    142. D(O  22,C  17,C  16,H  21)    -39.2440         0.010945   
    143. D(H  23,C  17,C  16,C  12)    -42.1257         0.010945   
    144. D(H  23,C  17,C  16,O  20)   -161.1991         0.010945   
    145. D(H  23,C  17,C  16,H  21)     82.1674         0.010945   
    146. D(H  24,C  18,C  17,H  23)    -82.0495         0.009861   
    147. D(C  19,C  18,C  17,O  22)    -81.8902         0.009861   
    148. D(C  19,C  18,C  17,H  23)    156.4791         0.009861   
    149. D(H  24,C  18,C  17,C  16)    156.5409         0.009861   
    150. D(C  19,C  18,C  17,C  16)     35.0696         0.009861 C 
    151. D(H  24,C  18,C  17,O  22)     39.5812         0.009861   
    152. D(H  25,C  18,C  17,C  16)    -82.9544         0.009861   
    153. D(H  25,C  18,C  17,O  22)    160.0859         0.009861   
    154. D(H  25,C  18,C  17,H  23)     38.4551         0.009861   
    155. D(H  27,C  19,C  18,H  25)   -143.5083         0.009784   
    156. D(O  20,C  19,C  18,H  24)   -140.0286         0.009784   
    157. D(O  20,C  19,C  18,H  25)     99.3776         0.009784   
    158. D(H  26,C  19,C  18,C  17)   -137.6912         0.009784   
    159. D(H  26,C  19,C  18,H  24)    100.5471         0.009784   
    160. D(H  26,C  19,C  18,H  25)    -20.0467         0.009784   
    161. D(H  27,C  19,C  18,C  17)     98.8473         0.009784   
    162. D(O  20,C  19,C  18,C  17)    -18.2668         0.009784 C 
    163. D(H  27,C  19,C  18,H  24)    -22.9145         0.009784   
    164. D(C  19,O  20,C  16,C  12)    -90.1119         0.013997   
    165. D(C  19,O  20,C  16,C  17)     29.5250         0.013997 C 
    166. D(C  19,O  20,C  16,H  21)    151.1604         0.013997   
    167. D(C  16,O  20,C  19,C  18)     -6.7722         0.012909 C 
    168. D(C  16,O  20,C  19,H  26)    114.8745         0.012909   
    169. D(C  16,O  20,C  19,H  27)   -127.3558         0.012909   
    170. D(H  28,O  22,C  17,C  16)    -55.8621         0.007811   
    171. D(H  28,O  22,C  17,C  18)     55.7945         0.007811   
    172. D(H  28,O  22,C  17,H  23)    179.9732         0.007811   
    -----------------------------------------------------------------

Number of atoms                         .... 29
Number of degrees of freedom            .... 172

         *************************************************************
         *                GEOMETRY OPTIMIZATION CYCLE   1            *
         *************************************************************
---------------------------------
CARTESIAN COORDINATES (ANGSTROEM)
---------------------------------
  C    -21.047824   26.222203   46.250847
  C    -20.360911   27.558301   45.944130
  C    -20.329030   28.222023   47.341256
  C    -20.109992   27.021866   48.296053
  O    -20.472867   25.806974   47.534799
  H    -20.832732   25.428323   45.532741
  H    -19.343876   27.382449   45.576154
  H    -20.897913   28.157399   45.201210
  H    -19.543089   28.978061   47.434440
  H    -21.289078   28.709912   47.548298
  H    -20.733044   27.081656   49.195031
  H    -19.064000   26.912887   48.597090
  C    -23.308859   26.833944   45.071781
  H    -23.575876   27.894944   45.146713
  H    -22.647841   26.706902   44.204801
  O    -22.585851   26.394000   46.374795
  C    -24.604955   26.021052   44.800914
  C    -25.227992   26.399986   43.452916
  C    -24.340128   25.607798   42.462948
  C    -24.018213   24.308839   43.243053
  O    -24.296106   24.593006   44.667044
  H    -25.277893   26.125195   45.654946
  O    -26.698045   25.906127   43.387044
  H    -25.216895   27.478966   43.262812
  H    -24.840201   25.408755   41.509995
  H    -23.422083   26.167684   42.249843
  H    -22.970250   24.004724   43.137023
  H    -24.661313   23.474875   42.949170
  H    -26.733143   24.827148   43.574150

----------------------------
CARTESIAN COORDINATES (A.U.)
----------------------------
  NO LB      ZA    FRAG     MASS         X           Y           Z
   0 C     6.0000    0    12.011  -39.774623   49.552781   87.401435
   1 C     6.0000    0    12.011  -38.476545   52.077642   86.821823
   2 C     6.0000    0    12.011  -38.416300   53.331894   89.462009
   3 C     6.0000    0    12.011  -38.002377   51.063926   91.266314
   4 O     8.0000    0    15.999  -38.688111   48.768114   89.827752
   5 H     1.0000    0     1.008  -39.368158   48.052567   86.044411
   6 H     1.0000    0     1.008  -36.554629   51.745329   86.126450
   7 H     1.0000    0     1.008  -39.491332   53.209773   85.417908
   8 H     1.0000    0     1.008  -36.931087   54.760599   89.638101
   9 H     1.0000    0     1.008  -40.230527   54.253870   89.853262
  10 H     1.0000    0     1.008  -39.179775   51.176914   92.965135
  11 H     1.0000    0     1.008  -36.025739   50.857985   91.835191
  12 C     6.0000    0    12.011  -44.047361   50.708805   85.173323
  13 H     1.0000    0     1.008  -44.551949   52.713806   85.314924
  14 H     1.0000    0     1.008  -42.798217   50.468732   83.534968
  15 O     8.0000    0    15.999  -42.681072   49.877432   87.635663
  16 C     6.0000    0    12.011  -46.496627   49.172662   84.661459
  17 C     6.0000    0    12.011  -47.673996   49.888743   82.114111
  18 C     6.0000    0    12.011  -45.996176   48.391724   80.243342
  19 C     6.0000    0    12.011  -45.387845   45.937048   81.717528
  20 O     8.0000    0    15.999  -45.912986   46.474046   84.408481
  21 H     1.0000    0     1.008  -47.768295   49.369464   86.275345
  22 O     8.0000    0    15.999  -50.451994   48.955485   81.989630
  23 H     1.0000    0     1.008  -47.653026   51.927721   81.754866
  24 H     1.0000    0     1.008  -46.941177   48.015589   78.442523
  25 H     1.0000    0     1.008  -44.261322   49.449757   79.840633
  26 H     1.0000    0     1.008  -43.407481   45.362355   81.517160
  27 H     1.0000    0     1.008  -46.603128   44.361084   81.162168
  28 H     1.0000    0     1.008  -50.518320   46.916511   82.343210

--------------------------------
INTERNAL COORDINATES (ANGSTROEM)
--------------------------------
 C      0   0   0     0.000000000000     0.00000000     0.00000000
 C      1   0   0     1.533334275362     0.00000000     0.00000000
 C      2   1   0     1.547103422529   101.67907390     0.00000000
 C      3   2   1     1.549188819996   103.12737509    35.02687180
 O      1   2   3     1.466801281701   104.24948604   319.98542309
 H      1   2   3     1.091872245274   114.43876658   203.42640133
 H      2   1   3     1.095759553917   110.06782188   117.34000099
 H      2   1   3     1.095088580892   113.12442239   238.72597460
 H      3   2   1     1.094523183857   112.83161078   156.54780790
 H      3   2   1     1.096628013503   110.07982737   276.98070077
 H      4   3   2     1.095413164062   112.52534669   222.25678475
 H      4   3   2     1.093891219455   112.45670684    98.86663270
 C      1   2   3     2.622347421682    95.33299893   108.21776102
 H     13   1   2     1.096647162947   113.88892863   326.35144295
 H     13   1   2     1.097606031325    78.98285107    71.54410622
 O      1   2   3     1.552547583812   111.30349807    79.08752829
 C     13   1   2     1.553713615825   132.49236854   175.52973485
 C     17  13   1     1.532603666967   111.28980687   215.63717494
 C     18  17  13     1.547872087739   101.70150166    79.07779745
 C     19  18  17     1.549027114030   103.07799595    35.06961880
 O     17  13   1     1.467181311222   110.45944370   330.92323960
 H     17  13   1     1.092273317444   109.13241130    88.40017353
 O     18  17  13     1.552189421430   110.10058930   196.46281312
 H     18  17  13     1.095655967902   113.07748601   317.87408973
 H     19  18  17     1.094445064862   112.82212374   156.54092469
 H     19  18  17     1.096217587890   110.07881016   277.04566627
 H     20  19  18     1.096337539264   112.49186938   222.30883131
 H     20  19  18     1.093362245553   112.45859445    98.84733881
 H     23  18  17     1.095643646447   109.65900043   304.13777313

---------------------------
INTERNAL COORDINATES (A.U.)
---------------------------
 C      0   0   0     0.000000000000     0.00000000     0.00000000
 C      1   0   0     2.897581852189     0.00000000     0.00000000
 C      2   1   0     2.923601769431   101.67907390     0.00000000
 C      3   2   1     2.927542599525   103.12737509    35.02687180
 O      1   2   3     2.771852715300   104.24948604   319.98542309
 H      1   2   3     2.063339516798   114.43876658   203.42640133
 H      2   1   3     2.070685465531   110.06782188   117.34000099
 H      2   1   3     2.069417510270   113.12442239   238.72597460
 H      3   2   1     2.068349064717   112.83161078   156.54780790
 H      3   2   1     2.072326616307   110.07982737   276.98070077
 H      4   3   2     2.070030883569   112.52534669   222.25678475
 H      4   3   2     2.067154825070   112.45670684    98.86663270
 C      1   2   3     4.955518454973    95.33299893   108.21776102
 H     13   1   2     2.072362803512   113.88892863   326.35144295
 H     13   1   2     2.074174802144    78.98285107    71.54410622
 O      1   2   3     2.933889743286   111.30349807    79.08752829
 C     13   1   2     2.936093224454   132.49236854   175.52973485
 C     17  13   1     2.896201202411   111.28980687   215.63717494
 C     18  17  13     2.925054336167   101.70150166    79.07779745
 C     19  18  17     2.927237019535   103.07799595    35.06961880
 O     17  13   1     2.772570867018   110.45944370   330.92323960
 H     17  13   1     2.064097433359   109.13241130    88.40017353
 O     18  17  13     2.933212914473   110.10058930   196.46281312
 H     18  17  13     2.070489716332   113.07748601   317.87408973
 H     19  18  17     2.068201441210   112.82212374   156.54092469
 H     19  18  17     2.071551024300   110.07881016   277.04566627
 H     20  19  18     2.071777699547   112.49186938   222.30883131
 H     20  19  18     2.066155209264   112.45859445    98.84733881
 H     23  18  17     2.070466432156   109.65900043   304.13777313

---------------------
BASIS SET INFORMATION
---------------------
There are 3 groups of distinct atoms

 Group   1 Type C   : 10s4p contracted to 3s2p pattern {631/31}
 Group   2 Type O   : 10s4p contracted to 3s2p pattern {631/31}
 Group   3 Type H   : 4s contracted to 2s pattern {31}

Atom   0C    basis set group =>   1
Atom   1C    basis set group =>   1
Atom   2C    basis set group =>   1
Atom   3C    basis set group =>   1
Atom   4O    basis set group =>   2
Atom   5H    basis set group =>   3
Atom   6H    basis set group =>   3
Atom   7H    basis set group =>   3
Atom   8H    basis set group =>   3
Atom   9H    basis set group =>   3
Atom  10H    basis set group =>   3
Atom  11H    basis set group =>   3
Atom  12C    basis set group =>   1
Atom  13H    basis set group =>   3
Atom  14H    basis set group =>   3
Atom  15O    basis set group =>   2
Atom  16C    basis set group =>   1
Atom  17C    basis set group =>   1
Atom  18C    basis set group =>   1
Atom  19C    basis set group =>   1
Atom  20O    basis set group =>   2
Atom  21H    basis set group =>   3
Atom  22O    basis set group =>   2
Atom  23H    basis set group =>   3
Atom  24H    basis set group =>   3
Atom  25H    basis set group =>   3
Atom  26H    basis set group =>   3
Atom  27H    basis set group =>   3
Atom  28H    basis set group =>   3
------------------------------------------------------------------------------
                           ORCA GTO INTEGRAL CALCULATION
------------------------------------------------------------------------------

                         BASIS SET STATISTICS AND STARTUP INFO

 # of primitive gaussian shells          ...  246
 # of primitive gaussian functions       ...  350
 # of contracted shells                  ...   97
 # of contracted basis functions         ...  149
 Highest angular momentum                ...    1
 Maximum contraction depth               ...    6
 Integral package used                   ... LIBINT
 Integral threshhold            Thresh   ...  2.500e-11
 Primitive cut-off              TCut     ...  2.500e-12


------------------------------ INTEGRAL EVALUATION ----------------------------


 * One electron integrals 
 Pre-screening matrix                    ... done
 Shell pair data                         ... done (   0.002 sec)

-------------------------------------------------------------------------------
                                 ORCA SCF
-------------------------------------------------------------------------------

------------
SCF SETTINGS
------------
Hamiltonian:
 Density Functional     Method          .... DFT(GTOs)
 Exchange Functional    Exchange        .... B88
   X-Alpha parameter    XAlpha          ....  0.666667
   Becke's b parameter  XBeta           ....  0.004200
 Correlation Functional Correlation     .... LYP
 LDA part of GGA corr.  LDAOpt          .... VWN-5
 Gradients option       PostSCFGGA      .... off
 Hybrid DFT is turned on
   Fraction HF Exchange ScalHFX         ....  0.200000
   Scaling of DF-GGA-X  ScalDFX         ....  0.720000
   Scaling of DF-GGA-C  ScalDFC         ....  0.810000
   Scaling of DF-LDA-C  ScalLDAC        ....  1.000000
   Perturbative correction              ....  0.000000
   Density functional embedding theory  .... OFF
   NL short-range parameter             ....  4.800000


General Settings:
 Integral files         IntName         .... project_8052/ensemble_180_135
 Hartree-Fock type      HFTyp           .... RHF
 Total Charge           Charge          ....    0
 Multiplicity           Mult            ....    1
 Number of Electrons    NEL             ....  102
 Basis Dimension        Dim             ....  149
 Nuclear Repulsion      ENuc            ....    849.7663305692 Eh

Convergence Acceleration:
 DIIS                   CNVDIIS         .... on
   Start iteration      DIISMaxIt       ....    12
   Startup error        DIISStart       ....  0.200000
   # of expansion vecs  DIISMaxEq       ....     5
   Bias factor          DIISBfac        ....   1.050
   Max. coefficient     DIISMaxC        ....  10.000
 Newton-Raphson         CNVNR           .... off
 SOSCF                  CNVSOSCF        .... on
   Start iteration      SOSCFMaxIt      ....   150
   Startup grad/error   SOSCFStart      ....  0.003300
 Level Shifting         CNVShift        .... on
   Level shift para.    LevelShift      ....    0.2500
   Turn off err/grad.   ShiftErr        ....    0.0010
 Zerner damping         CNVZerner       .... off
 Static damping         CNVDamp         .... on
   Fraction old density DampFac         ....    0.7000
   Max. Damping (<1)    DampMax         ....    0.9800
   Min. Damping (>=0)   DampMin         ....    0.0000
   Turn off err/grad.   DampErr         ....    0.1000
 Fernandez-Rico         CNVRico         .... off

SCF Procedure:
 Maximum # iterations   MaxIter         ....   125
 SCF integral mode      SCFMode         .... Direct
   Integral package                     .... LIBINT
 Reset frequency        DirectResetFreq ....    20
 Integral Threshold     Thresh          ....  2.500e-11 Eh
 Primitive CutOff       TCut            ....  2.500e-12 Eh

Convergence Tolerance:
 Convergence Check Mode ConvCheckMode   .... Total+1el-Energy
 Convergence forced     ConvForced      .... 0
 Energy Change          TolE            ....  1.000e-08 Eh
 1-El. energy change                    ....  1.000e-05 Eh
 Orbital Gradient       TolG            ....  1.000e-05
 Orbital Rotation angle TolX            ....  1.000e-05
 DIIS Error             TolErr          ....  5.000e-07


Diagonalization of the overlap matrix:
Smallest eigenvalue                        ... 4.107e-03
Time for diagonalization                   ...    0.010 sec
Threshold for overlap eigenvalues          ... 1.000e-08
Number of eigenvalues below threshold      ... 0
Time for construction of square roots      ...    0.020 sec
Total time needed                          ...    0.030 sec

-------------------
DFT GRID GENERATION
-------------------

General Integration Accuracy     IntAcc      ...  4.340
Radial Grid Type                 RadialGrid  ... Gauss-Chebyshev
Angular Grid (max. acc.)         AngularGrid ... Lebedev-110
Angular grid pruning method      GridPruning ... 3 (G Style)
Weight generation scheme         WeightScheme... Becke
Basis function cutoff            BFCut       ...    1.0000e-11
Integration weight cutoff        WCut        ...    1.0000e-14
Grids for H and He will be reduced by one unit

# of grid points (after initial pruning)     ...  34472 (   0.0 sec)
# of grid points (after weights+screening)   ...  31082 (   0.7 sec)
nearest neighbour list constructed           ...    0.0 sec
Grid point re-assignment to atoms done       ...    0.0 sec
Grid point division into batches done        ...    0.0 sec
Reduced shell lists constructed in    0.4 sec

Total number of grid points                  ...    31082
Total number of batches                      ...      500
Average number of points per batch           ...       62
Average number of grid points per atom       ...     1072
Average number of shells per batch           ...    56.52 (58.27%)
Average number of basis functions per batch  ...    91.58 (61.46%)
Average number of large shells per batch     ...    40.24 (71.20%)
Average number of large basis fcns per batch ...    66.42 (72.52%)
Maximum spatial batch extension              ...  20.09, 20.09, 19.88 au
Average spatial batch extension              ...   3.36,  3.46,  3.35 au

Time for grid setup =    1.194 sec

------------------------------
INITIAL GUESS: MODEL POTENTIAL
------------------------------
Loading Hartree-Fock densities                     ... done
Calculating cut-offs                               ... done
Setting up the integral package                    ... done
Initializing the effective Hamiltonian             ... done
Starting the Coulomb interaction                   ... done (   0.5 sec)
Reading the grid                                   ... done
Mapping shells                                     ... done
Starting the XC term evaluation                    ... done (   0.4 sec)
  promolecular density results
     # of electrons  =    101.994129046
     EX              =    -83.661636285
     EC              =     -3.455851313
     EX+EC           =    -87.117487598
Transforming the Hamiltonian                       ... done (   0.0 sec)
Diagonalizing the Hamiltonian                      ... done (   0.0 sec)
Back transforming the eigenvectors                 ... done (   0.0 sec)
Now organizing SCF variables                       ... done
                      ------------------
                      INITIAL GUESS DONE (   2.3 sec)
                      ------------------
--------------
SCF ITERATIONS
--------------
ITER       Energy         Delta-E        Max-DP      RMS-DP      [F,P]     Damp
               ***  Starting incremental Fock matrix formation  ***
  0   -652.5247280724   0.000000000000 0.07797070  0.00317231  0.2559956 0.7000
  1   -652.6681889367  -0.143460864288 0.04659092  0.00216366  0.1122365 0.7000
                               ***Turning on DIIS***
  2   -652.7214173561  -0.053228419377 0.05674900  0.00340026  0.0307496 0.0000
  3   -652.8098048231  -0.088387467030 0.03064473  0.00144173  0.0588802 0.0000
  4   -652.8274162405  -0.017611417433 0.00855484  0.00044126  0.0128755 0.0000
  5   -652.8285090972  -0.001092856707 0.00273434  0.00013386  0.0038963 0.0000
                      *** Initiating the SOSCF procedure ***
                           *** Shutting down DIIS ***
                      *** Re-Reading the Fockian *** 
                      *** Removing any level shift *** 
ITER      Energy       Delta-E        Grad      Rot      Max-DP    RMS-DP
  6   -652.82857725  -0.0000681481  0.000220  0.000220  0.000888  0.000057
               *** Restarting incremental Fock matrix formation ***
  7   -652.82858009  -0.0000028453  0.000118  0.000243  0.000863  0.000033
  8   -652.82857807   0.0000020218  0.000200  0.000175  0.000508  0.000021
  9   -652.82858139  -0.0000033173  0.000025  0.000044  0.000199  0.000006
 10   -652.82858133   0.0000000536  0.000038  0.000027  0.000123  0.000004
 11   -652.82858144  -0.0000001108  0.000004  0.000007  0.000022  0.000001
 12   -652.82858144   0.0000000001  0.000008  0.000005  0.000014  0.000000
                  ***Gradient check signals convergence***
              ***Rediagonalizing the Fockian in SOSCF/NRSCF***

               *****************************************************
               *                     SUCCESS                       *
               *           SCF CONVERGED AFTER  13 CYCLES          *
               *****************************************************

Setting up the final grid:

General Integration Accuracy     IntAcc      ...  4.670
Radial Grid Type                 RadialGrid  ... Gauss-Chebyshev
Angular Grid (max. acc.)         AngularGrid ... Lebedev-302
Angular grid pruning method      GridPruning ... 3 (G Style)
Weight generation scheme         WeightScheme... Becke
Basis function cutoff            BFCut       ...    1.0000e-11
Integration weight cutoff        WCut        ...    1.0000e-14
Grids for H and He will be reduced by one unit

# of grid points (after initial pruning)     ... 135060 (   0.1 sec)
# of grid points (after weights+screening)   ... 119280 (   1.7 sec)
nearest neighbour list constructed           ...    0.0 sec
Grid point re-assignment to atoms done       ...    0.0 sec
Grid point division into batches done        ...    0.5 sec
Reduced shell lists constructed in    1.7 sec

Total number of grid points                  ...   119280
Total number of batches                      ...     1881
Average number of points per batch           ...       63
Average number of grid points per atom       ...     4113
Average number of shells per batch           ...    51.63 (53.23%)
Average number of basis functions per batch  ...    83.92 (56.33%)
Average number of large shells per batch     ...    36.02 (69.77%)
Average number of large basis fcns per batch ...    59.64 (71.06%)
Maximum spatial batch extension              ...  17.66, 19.88, 18.05 au
Average spatial batch extension              ...   2.23,  2.28,  2.28 au

Final grid set up in    3.7 sec
Final integration                            ... done (   2.6 sec)
Change in XC energy                          ...    -0.000086212
Integrated number of electrons               ...   101.999840794
Previous integrated no of electrons          ...   102.000830138

----------------
TOTAL SCF ENERGY
----------------

Total Energy       :         -652.82866766 Eh          -17764.37117 eV

Components:
Nuclear Repulsion  :          849.76633057 Eh           23123.31742 eV
Electronic Energy  :        -1502.59499822 Eh          -40887.68859 eV
One Electron Energy:        -2577.22783428 Eh          -70129.93471 eV
Two Electron Energy:         1074.63283606 Eh           29242.24612 eV

Virial components:
Potential Energy   :        -1301.73784551 Eh          -35422.08760 eV
Kinetic Energy     :          648.90917785 Eh           17657.71643 eV
Virial Ratio       :            2.00604012


DFT components:
N(Alpha)           :       50.999920396883 electrons
N(Beta)            :       50.999920396883 electrons
N(Total)           :      101.999840793767 electrons
E(X)               :      -67.583811819988 Eh       
E(C)               :       -4.067751553238 Eh       
E(XC)              :      -71.651563373226 Eh       
DFET-embed. en.    :        0.000000000000 Eh       

---------------
SCF CONVERGENCE
---------------

  Last Energy change         ...   -6.2050e-10  Tolerance :   1.0000e-08
  Last MAX-Density change    ...    2.7133e-06  Tolerance :   1.0000e-07
  Last RMS-Density change    ...    9.6038e-08  Tolerance :   5.0000e-09
  Last Orbital Gradient      ...    2.8527e-07  Tolerance :   1.0000e-05
  Last Orbital Rotation      ...    4.6861e-07  Tolerance :   1.0000e-05

             **** THE GBW FILE WAS UPDATED (project_8052/ensemble_180_135.gbw) ****
             **** DENSITY FILE WAS UPDATED (project_8052/ensemble_180_135.scfp) ****
             **** ENERGY FILE WAS UPDATED (project_8052/ensemble_180_135.en.tmp) ****
             **** THE GBW FILE WAS UPDATED (project_8052/ensemble_180_135.gbw) ****
             **** DENSITY FILE WAS UPDATED (project_8052/ensemble_180_135.scfp) ****
----------------
ORBITAL ENERGIES
----------------

  NO   OCC          E(Eh)            E(eV) 
   0   2.0000     -19.149301      -521.0790 
   1   2.0000     -19.149119      -521.0740 
   2   2.0000     -19.141876      -520.8769 
   3   2.0000     -19.138824      -520.7939 
   4   2.0000     -10.282740      -279.8076 
   5   2.0000     -10.253481      -279.0114 
   6   2.0000     -10.239685      -278.6360 
   7   2.0000     -10.238904      -278.6147 
   8   2.0000     -10.234584      -278.4972 
   9   2.0000     -10.225580      -278.2522 
  10   2.0000     -10.199210      -277.5346 
  11   2.0000     -10.191896      -277.3356 
  12   2.0000     -10.188642      -277.2470 
  13   2.0000      -1.033179       -28.1142 
  14   2.0000      -1.029250       -28.0073 
  15   2.0000      -0.968089       -26.3430 
  16   2.0000      -0.958714       -26.0879 
  17   2.0000      -0.792036       -21.5524 
  18   2.0000      -0.787125       -21.4188 
  19   2.0000      -0.767173       -20.8758 
  20   2.0000      -0.730458       -19.8768 
  21   2.0000      -0.674563       -18.3558 
  22   2.0000      -0.605054       -16.4643 
  23   2.0000      -0.599526       -16.3139 
  24   2.0000      -0.587953       -15.9990 
  25   2.0000      -0.581625       -15.8268 
  26   2.0000      -0.516072       -14.0430 
  27   2.0000      -0.503658       -13.7052 
  28   2.0000      -0.496636       -13.5142 
  29   2.0000      -0.488416       -13.2905 
  30   2.0000      -0.467237       -12.7142 
  31   2.0000      -0.449734       -12.2379 
  32   2.0000      -0.444802       -12.1037 
  33   2.0000      -0.439393       -11.9565 
  34   2.0000      -0.419563       -11.4169 
  35   2.0000      -0.413338       -11.2475 
  36   2.0000      -0.399939       -10.8829 
  37   2.0000      -0.392650       -10.6846 
  38   2.0000      -0.378061       -10.2876 
  39   2.0000      -0.370991       -10.0952 
  40   2.0000      -0.368194       -10.0191 
  41   2.0000      -0.358376        -9.7519 
  42   2.0000      -0.352728        -9.5982 
  43   2.0000      -0.326147        -8.8749 
  44   2.0000      -0.314929        -8.5696 
  45   2.0000      -0.310199        -8.4409 
  46   2.0000      -0.300129        -8.1669 
  47   2.0000      -0.270058        -7.3486 
  48   2.0000      -0.261191        -7.1074 
  49   2.0000      -0.254060        -6.9133 
  50   2.0000      -0.240206        -6.5363 
  51   0.0000       0.032208         0.8764 
  52   0.0000       0.061213         1.6657 
  53   0.0000       0.067871         1.8469 
  54   0.0000       0.088312         2.4031 
  55   0.0000       0.097038         2.6405 
  56   0.0000       0.101654         2.7662 
  57   0.0000       0.110865         3.0168 
  58   0.0000       0.115318         3.1380 
  59   0.0000       0.128442         3.4951 
  60   0.0000       0.132798         3.6136 
  61   0.0000       0.137929         3.7533 
  62   0.0000       0.148934         4.0527 
  63   0.0000       0.151544         4.1237 
  64   0.0000       0.155516         4.2318 
  65   0.0000       0.161570         4.3966 
  66   0.0000       0.163185         4.4405 
  67   0.0000       0.173140         4.7114 
  68   0.0000       0.179702         4.8899 
  69   0.0000       0.184983         5.0336 
  70   0.0000       0.198279         5.3954 
  71   0.0000       0.213352         5.8056 
  72   0.0000       0.218299         5.9402 
  73   0.0000       0.220832         6.0091 
  74   0.0000       0.225401         6.1335 
  75   0.0000       0.252849         6.8804 
  76   0.0000       0.262086         7.1317 
  77   0.0000       0.273881         7.4527 
  78   0.0000       0.278732         7.5847 
  79   0.0000       0.289479         7.8771 
  80   0.0000       0.294886         8.0243 
  81   0.0000       0.522141        14.2082 
  82   0.0000       0.532588        14.4924 
  83   0.0000       0.538401        14.6506 
  84   0.0000       0.549346        14.9485 
  85   0.0000       0.552184        15.0257 
  86   0.0000       0.566308        15.4100 
  87   0.0000       0.572147        15.5689 
  88   0.0000       0.580414        15.7939 
  89   0.0000       0.584121        15.8947 
  90   0.0000       0.595279        16.1984 
  91   0.0000       0.602353        16.3909 
  92   0.0000       0.619718        16.8634 
  93   0.0000       0.631082        17.1726 
  94   0.0000       0.633862        17.2483 
  95   0.0000       0.641217        17.4484 
  96   0.0000       0.647524        17.6200 
  97   0.0000       0.665198        18.1010 
  98   0.0000       0.684815        18.6348 
  99   0.0000       0.701237        19.0816 
 100   0.0000       0.713390        19.4123 
 101   0.0000       0.755299        20.5527 
 102   0.0000       0.766342        20.8532 
 103   0.0000       0.805039        21.9062 
 104   0.0000       0.819161        22.2905 
 105   0.0000       0.822459        22.3803 
 106   0.0000       0.834682        22.7129 
 107   0.0000       0.852856        23.2074 
 108   0.0000       0.857836        23.3429 
 109   0.0000       0.868825        23.6419 
 110   0.0000       0.878054        23.8931 
 111   0.0000       0.894379        24.3373 
 112   0.0000       0.901425        24.5290 
 113   0.0000       0.904792        24.6206 
 114   0.0000       0.916717        24.9451 
 115   0.0000       0.923532        25.1306 
 116   0.0000       0.930714        25.3260 
 117   0.0000       0.939308        25.5599 
 118   0.0000       0.948937        25.8219 
 119   0.0000       0.959767        26.1166 
 120   0.0000       0.961894        26.1745 
 121   0.0000       0.988915        26.9098 
 122   0.0000       1.003037        27.2940 
 123   0.0000       1.017610        27.6906 
 124   0.0000       1.026817        27.9411 
 125   0.0000       1.050561        28.5872 
 126   0.0000       1.062355        28.9082 
 127   0.0000       1.084514        29.5111 
 128   0.0000       1.119789        30.4710 
 129   0.0000       1.139539        31.0084 
 130   0.0000       1.178371        32.0651 
 131   0.0000       1.223187        33.2846 
 132   0.0000       1.268532        34.5185 
 133   0.0000       1.283761        34.9329 
 134   0.0000       1.310578        35.6626 
 135   0.0000       1.345920        36.6244 
 136   0.0000       1.385739        37.7079 
 137   0.0000       1.401181        38.1281 
 138   0.0000       1.412946        38.4482 
 139   0.0000       1.446432        39.3594 
 140   0.0000       1.484329        40.3906 
 141   0.0000       1.556109        42.3439 
 142   0.0000       1.613142        43.8958 
 143   0.0000       1.672739        45.5176 
 144   0.0000       1.718684        46.7678 
 145   0.0000       1.825636        49.6781 
 146   0.0000       1.879635        51.1475 
 147   0.0000       2.055351        55.9289 
 148   0.0000       2.088360        56.8272 

                    ********************************
                    * MULLIKEN POPULATION ANALYSIS *
                    ********************************

-----------------------
MULLIKEN ATOMIC CHARGES
-----------------------
   0 C :    0.302840
   1 C :   -0.282380
   2 C :   -0.297507
   3 C :   -0.001375
   4 O :   -0.499512
   5 H :    0.149358
   6 H :    0.147325
   7 H :    0.144606
   8 H :    0.141788
   9 H :    0.159960
  10 H :    0.155352
  11 H :    0.141800
  12 C :   -0.025505
  13 H :    0.134950
  14 H :    0.120830
  15 O :   -0.497628
  16 C :    0.079148
  17 C :    0.066526
  18 C :   -0.311748
  19 C :   -0.024918
  20 O :   -0.502722
  21 H :    0.179003
  22 O :   -0.592602
  23 H :    0.155165
  24 H :    0.166570
  25 H :    0.145758
  26 H :    0.145406
  27 H :    0.145235
  28 H :    0.354278
Sum of atomic charges:   -0.0000000

--------------------------------
MULLIKEN REDUCED ORBITAL CHARGES
--------------------------------
  0 C s       :     3.228984  s :     3.228984
      pz      :     0.795636  p :     2.468176
      px      :     0.693789
      py      :     0.978752
  1 C s       :     3.305981  s :     3.305981
      pz      :     0.987583  p :     2.976399
      px      :     1.038543
      py      :     0.950273
  2 C s       :     3.314497  s :     3.314497
      pz      :     0.905608  p :     2.983010
      px      :     1.083836
      py      :     0.993565
  3 C s       :     3.261320  s :     3.261320
      pz      :     0.942917  p :     2.740055
      px      :     1.056452
      py      :     0.740686
  4 O s       :     3.949386  s :     3.949386
      pz      :     1.318217  p :     4.550126
      px      :     1.714867
      py      :     1.517041
  5 H s       :     0.850642  s :     0.850642
  6 H s       :     0.852675  s :     0.852675
  7 H s       :     0.855394  s :     0.855394
  8 H s       :     0.858212  s :     0.858212
  9 H s       :     0.840040  s :     0.840040
 10 H s       :     0.844648  s :     0.844648
 11 H s       :     0.858200  s :     0.858200
 12 C s       :     3.287264  s :     3.287264
      pz      :     0.810330  p :     2.738241
      px      :     0.930370
      py      :     0.997541
 13 H s       :     0.865050  s :     0.865050
 14 H s       :     0.879170  s :     0.879170
 15 O s       :     3.951914  s :     3.951914
      pz      :     1.448915  p :     4.545714
      px      :     1.266795
      py      :     1.830003
 16 C s       :     3.280224  s :     3.280224
      pz      :     0.985636  p :     2.640628
      px      :     0.976288
      py      :     0.678704
 17 C s       :     3.301867  s :     3.301867
      pz      :     0.918280  p :     2.631607
      px      :     0.677631
      py      :     1.035697
 18 C s       :     3.319930  s :     3.319930
      pz      :     1.017893  p :     2.991819
      px      :     1.021381
      py      :     0.952544
 19 C s       :     3.265863  s :     3.265863
      pz      :     0.687499  p :     2.759055
      px      :     1.092111
      py      :     0.979445
 20 O s       :     3.946963  s :     3.946963
      pz      :     1.375321  p :     4.555759
      px      :     1.829145
      py      :     1.351293
 21 H s       :     0.820997  s :     0.820997
 22 O s       :     3.951278  s :     3.951278
      pz      :     1.918048  p :     4.641324
      px      :     1.397353
      py      :     1.325923
 23 H s       :     0.844835  s :     0.844835
 24 H s       :     0.833430  s :     0.833430
 25 H s       :     0.854242  s :     0.854242
 26 H s       :     0.854594  s :     0.854594
 27 H s       :     0.854765  s :     0.854765
 28 H s       :     0.645722  s :     0.645722


                     *******************************
                     * LOEWDIN POPULATION ANALYSIS *
                     *******************************

----------------------
LOEWDIN ATOMIC CHARGES
----------------------
   0 C :    0.193421
   1 C :   -0.231276
   2 C :   -0.216856
   3 C :   -0.027396
   4 O :   -0.296825
   5 H :    0.103680
   6 H :    0.114983
   7 H :    0.114762
   8 H :    0.113667
   9 H :    0.117748
  10 H :    0.109708
  11 H :    0.102026
  12 C :   -0.048413
  13 H :    0.101967
  14 H :    0.093834
  15 O :   -0.358623
  16 C :    0.024511
  17 C :    0.041086
  18 C :   -0.240373
  19 C :   -0.038973
  20 O :   -0.317108
  21 H :    0.128692
  22 O :   -0.439028
  23 H :    0.119983
  24 H :    0.128409
  25 H :    0.111586
  26 H :    0.103671
  27 H :    0.101589
  28 H :    0.289546

-------------------------------
LOEWDIN REDUCED ORBITAL CHARGES
-------------------------------
  0 C s       :     2.979078  s :     2.979078
      pz      :     0.916503  p :     2.827501
      px      :     0.833714
      py      :     1.077284
  1 C s       :     2.980087  s :     2.980087
      pz      :     1.077075  p :     3.251188
      px      :     1.109205
      py      :     1.064908
  2 C s       :     2.973117  s :     2.973117
      pz      :     1.030802  p :     3.243739
      px      :     1.132142
      py      :     1.080795
  3 C s       :     2.983872  s :     2.983872
      pz      :     1.040115  p :     3.043524
      px      :     1.119064
      py      :     0.884345
  4 O s       :     3.607265  s :     3.607265
      pz      :     1.379170  p :     4.689560
      px      :     1.746869
      py      :     1.563521
  5 H s       :     0.896320  s :     0.896320
  6 H s       :     0.885017  s :     0.885017
  7 H s       :     0.885238  s :     0.885238
  8 H s       :     0.886333  s :     0.886333
  9 H s       :     0.882252  s :     0.882252
 10 H s       :     0.890292  s :     0.890292
 11 H s       :     0.897974  s :     0.897974
 12 C s       :     3.003101  s :     3.003101
      pz      :     0.916925  p :     3.045312
      px      :     1.041440
      py      :     1.086947
 13 H s       :     0.898033  s :     0.898033
 14 H s       :     0.906166  s :     0.906166
 15 O s       :     3.663786  s :     3.663786
      pz      :     1.506686  p :     4.694837
      px      :     1.328441
      py      :     1.859710
 16 C s       :     2.969428  s :     2.969428
      pz      :     1.087991  p :     3.006061
      px      :     1.071350
      py      :     0.846720
 17 C s       :     2.974281  s :     2.974281
      pz      :     1.052131  p :     2.984633
      px      :     0.844335
      py      :     1.088168
 18 C s       :     2.983173  s :     2.983173
      pz      :     1.095588  p :     3.257200
      px      :     1.098529
      py      :     1.063083
 19 C s       :     2.983059  s :     2.983059
      pz      :     0.834528  p :     3.055914
      px      :     1.135873
      py      :     1.085513
 20 O s       :     3.604889  s :     3.604889
      pz      :     1.439400  p :     4.712219
      px      :     1.853422
      py      :     1.419398
 21 H s       :     0.871308  s :     0.871308
 22 O s       :     3.693082  s :     3.693082
      pz      :     1.925210  p :     4.745946
      px      :     1.452581
      py      :     1.368156
 23 H s       :     0.880017  s :     0.880017
 24 H s       :     0.871591  s :     0.871591
 25 H s       :     0.888414  s :     0.888414
 26 H s       :     0.896329  s :     0.896329
 27 H s       :     0.898411  s :     0.898411
 28 H s       :     0.710454  s :     0.710454


                      *****************************
                      * MAYER POPULATION ANALYSIS *
                      *****************************

  NA   - Mulliken gross atomic population
  ZA   - Total nuclear charge
  QA   - Mulliken gross atomic charge
  VA   - Mayer's total valence
  BVA  - Mayer's bonded valence
  FA   - Mayer's free valence

  ATOM       NA         ZA         QA         VA         BVA        FA
  0 C      5.6972     6.0000     0.3028     3.6584     3.6584    -0.0000
  1 C      6.2824     6.0000    -0.2824     3.7153     3.7153    -0.0000
  2 C      6.2975     6.0000    -0.2975     3.7638     3.7638    -0.0000
  3 C      6.0014     6.0000    -0.0014     3.6559     3.6559     0.0000
  4 O      8.4995     8.0000    -0.4995     1.8319     1.8319    -0.0000
  5 H      0.8506     1.0000     0.1494     0.9285     0.9285    -0.0000
  6 H      0.8527     1.0000     0.1473     0.9315     0.9315    -0.0000
  7 H      0.8554     1.0000     0.1446     0.9390     0.9390    -0.0000
  8 H      0.8582     1.0000     0.1418     0.9366     0.9366     0.0000
  9 H      0.8400     1.0000     0.1600     0.9350     0.9350     0.0000
 10 H      0.8446     1.0000     0.1554     0.9248     0.9248     0.0000
 11 H      0.8582     1.0000     0.1418     0.9283     0.9283     0.0000
 12 C      6.0255     6.0000    -0.0255     3.6520     3.6520     0.0000
 13 H      0.8651     1.0000     0.1349     0.9264     0.9264    -0.0000
 14 H      0.8792     1.0000     0.1208     0.9393     0.9393     0.0000
 15 O      8.4976     8.0000    -0.4976     1.7847     1.7847     0.0000
 16 C      5.9209     6.0000     0.0791     3.5745     3.5745     0.0000
 17 C      5.9335     6.0000     0.0665     3.6383     3.6383     0.0000
 18 C      6.3117     6.0000    -0.3117     3.6974     3.6974    -0.0000
 19 C      6.0249     6.0000    -0.0249     3.6709     3.6709    -0.0000
 20 O      8.5027     8.0000    -0.5027     1.7845     1.7845    -0.0000
 21 H      0.8210     1.0000     0.1790     0.9317     0.9317    -0.0000
 22 O      8.5926     8.0000    -0.5926     1.7632     1.7632     0.0000
 23 H      0.8448     1.0000     0.1552     0.9382     0.9382    -0.0000
 24 H      0.8334     1.0000     0.1666     0.9388     0.9388     0.0000
 25 H      0.8542     1.0000     0.1458     0.9345     0.9345    -0.0000
 26 H      0.8546     1.0000     0.1454     0.9278     0.9278    -0.0000
 27 H      0.8548     1.0000     0.1452     0.9292     0.9292    -0.0000
 28 H      0.6457     1.0000     0.3543     0.8454     0.8454     0.0000

  Mayer bond orders larger than 0.100000
B(  0-C ,  1-C ) :   0.9225 B(  0-C ,  4-O ) :   0.9377 B(  0-C ,  5-H ) :   0.9209 
B(  0-C , 15-O ) :   0.8313 B(  1-C ,  2-C ) :   0.9551 B(  1-C ,  6-H ) :   0.9322 
B(  1-C ,  7-H ) :   0.9333 B(  2-C ,  3-C ) :   0.9552 B(  2-C ,  8-H ) :   0.9448 
B(  2-C ,  9-H ) :   0.9446 B(  3-C ,  4-O ) :   0.8369 B(  3-C , 10-H ) :   0.9332 
B(  3-C , 11-H ) :   0.9384 B( 12-C , 13-H ) :   0.9145 B( 12-C , 14-H ) :   0.9156 
B( 12-C , 15-O ) :   0.8782 B( 12-C , 16-C ) :   0.8797 B( 16-C , 17-C ) :   0.8865 
B( 16-C , 20-O ) :   0.8671 B( 16-C , 21-H ) :   0.9252 B( 17-C , 18-C ) :   0.9155 
B( 17-C , 22-O ) :   0.8936 B( 17-C , 23-H ) :   0.9304 B( 18-C , 19-C ) :   0.9357 
B( 18-C , 24-H ) :   0.9368 B( 18-C , 25-H ) :   0.9299 B( 19-C , 20-O ) :   0.8580 
B( 19-C , 26-H ) :   0.9341 B( 19-C , 27-H ) :   0.9372 B( 22-O , 28-H ) :   0.8053 


-------
TIMINGS
-------

Total SCF time: 0 days 0 hours 3 min 27 sec 

Total time                  ....     207.940 sec
Sum of individual times     ....     206.257 sec  ( 99.2%)

Fock matrix formation       ....     199.830 sec  ( 96.1%)
  XC integration            ....      20.807 sec  ( 10.4% of F)
    Basis function eval.    ....       3.911 sec  ( 18.8% of XC)
    Density eval.           ....       2.101 sec  ( 10.1% of XC)
    XC-Functional eval.     ....       1.022 sec  (  4.9% of XC)
    XC-Potential eval.      ....       2.154 sec  ( 10.4% of XC)
Diagonalization             ....       0.075 sec  (  0.0%)
Density matrix formation    ....       0.008 sec  (  0.0%)
Population analysis         ....       0.043 sec  (  0.0%)
Initial guess               ....       1.061 sec  (  0.5%)
Orbital Transformation      ....       0.000 sec  (  0.0%)
Orbital Orthonormalization  ....       0.000 sec  (  0.0%)
DIIS solution               ....       0.287 sec  (  0.1%)
SOSCF solution              ....       0.056 sec  (  0.0%)
Grid generation             ....       4.896 sec  (  2.4%)

-------------------------   --------------------
FINAL SINGLE POINT ENERGY      -652.828667655571
-------------------------   --------------------

------------------------------------------------------------------------------
                         ORCA SCF GRADIENT CALCULATION
------------------------------------------------------------------------------

Gradient of the Kohn-Sham DFT energy:
Kohn-Sham wavefunction type      ... RKS
Hartree-Fock exchange scaling    ...    0.200
Number of operators              ...    1
Number of atoms                  ...   29
Basis set dimensions             ...  149
Integral neglect threshold       ... 2.5e-11
Integral primitive cutoff        ... 2.5e-12

Nuclear repulsion gradient       ... done
One Electron Gradient            ... done
Pre-screening matrix             ... done
Starting the two electron gradient:
Two electron gradient done
Exchange-correlation gradient    ... done

------------------
CARTESIAN GRADIENT
------------------

   1   C   :    0.011827280    0.000227578   -0.003805638
   2   C   :    0.006226269   -0.002821162   -0.004454351
   3   C   :   -0.000271606   -0.000754189   -0.001819927
   4   C   :    0.001055748   -0.005635537   -0.003685670
   5   O   :    0.019327817   -0.007746962    0.021587062
   6   H   :    0.004656908    0.002419489   -0.001510020
   7   H   :   -0.000052752    0.001869942    0.000271608
   8   H   :   -0.000971701    0.000967218   -0.000771150
   9   H   :   -0.000686418    0.000631868    0.000187656
  10   H   :   -0.000589503    0.001856053    0.000645561
  11   H   :   -0.000423704    0.000998523    0.001654897
  12   H   :   -0.000380026    0.001232987    0.000840099
  13   C   :   -0.011730721    0.012410822   -0.016772203
  14   H   :   -0.003140581   -0.000745354   -0.004845900
  15   H   :   -0.004654517    0.000039676   -0.004374165
  16   O   :   -0.008424857   -0.006441101    0.025305980
  17   C   :   -0.015817641   -0.001577153   -0.016777521
  18   C   :    0.020972591    0.022348618    0.001624795
  19   C   :    0.003523973    0.003281061   -0.000475806
  20   C   :   -0.003054497    0.000102412    0.001314792
  21   O   :    0.002736476   -0.000323357    0.002574341
  22   H   :    0.002416205    0.001096271    0.002697590
  23   O   :   -0.027683616    0.042832538   -0.009244790
  24   H   :    0.011454129    0.003881615    0.000664298
  25   H   :    0.001553775   -0.002199348   -0.001843574
  26   H   :    0.000764704   -0.000704400    0.001170745
  27   H   :    0.001595595    0.000524234    0.000298874
  28   H   :   -0.000386132    0.001057074    0.000731207
  29   H   :   -0.009843196   -0.068829415    0.008811209

Difference to translation invariance:
           :   -0.0000000000   -0.0000000000   -0.0000000001

Norm of the cartesian gradient     ...    0.1091828651
RMS gradient                       ...    0.0117056318
MAX gradient                       ...    0.0688294153

-------
TIMINGS
-------

Total SCF gradient time            ...       53.287 sec

One electron gradient       ....       0.660 sec  (  1.2%)
Prescreening matrices       ....       0.082 sec  (  0.2%)
Two electron gradient       ....      22.345 sec  ( 41.9%)
XC gradient                 ....      16.900 sec  ( 31.7%)
------------------------------------------------------------------------------
                         ORCA GEOMETRY RELAXATION STEP
------------------------------------------------------------------------------

Reading the OPT-File                    .... done
Getting information on internals        .... done
Copying old internal coords+grads       .... done
Making the new internal coordinates     .... (new redundants).... done
Validating the new internal coordinates .... (new redundants).... done
Calculating the B-matrix                .... done
Calculating the G,G- and P matrices     .... done
Transforming gradient to internals      .... done
Projecting the internal gradient        .... done
Number of atoms                         ....  29
Number of internal coordinates          .... 172
Current Energy                          ....  -652.828667656 Eh
Current gradient norm                   ....     0.109182865 Eh/bohr
Maximum allowed component of the step   ....  0.300
Current trust radius                    ....  0.300
Evaluating the initial hessian          ....  (Almloef) done
Projecting the Hessian                  .... done
Forming the augmented Hessian           .... done
Diagonalizing the augmented Hessian     .... done
Last element of RFO vector              ....  0.941653747
Lowest eigenvalues of augmented Hessian:
 -0.038179251  0.007935020  0.033021173  0.033125531  0.036594300
Length of the computed step             ....  0.357438345
Warning: the length of the step is outside the trust region - taking restricted step instead
The input lambda is                     ....    -0.038179
   iter:   1  x=   -0.071441  g=    1.135315 f(x)=     0.037762
   iter:   2  x=   -0.085733  g=    0.657838 f(x)=     0.009402
   iter:   3  x=   -0.087122  g=    0.555131 f(x)=     0.000771
   iter:   4  x=   -0.087133  g=    0.546661 f(x)=     0.000006
   iter:   5  x=   -0.087133  g=    0.546596 f(x)=     0.000000
   iter:   6  x=   -0.087133  g=    0.546596 f(x)=    -0.000000
The output lambda is                    ....    -0.087133 (6 iterations)
The final length of the internal step   ....  0.300000000
Converting the step to cartesian space:
 Initial RMS(Int)=    0.0228747855
Transforming coordinates:
 Iter   0:  RMS(Cart)=    0.0898797940 RMS(Int)=    0.6757730614
 Iter   1:  RMS(Cart)=    0.0017227420 RMS(Int)=    0.0007645796
 Iter   2:  RMS(Cart)=    0.0001176172 RMS(Int)=    0.0000685014
 Iter   3:  RMS(Cart)=    0.0000065064 RMS(Int)=    0.0000044000
[...]
  29   2.0000      -0.491719       -13.3803 
  30   2.0000      -0.478363       -13.0169 
  31   2.0000      -0.460779       -12.5384 
  32   2.0000      -0.451265       -12.2795 
  33   2.0000      -0.448967       -12.2170 
  34   2.0000      -0.421389       -11.4666 
  35   2.0000      -0.413486       -11.2515 
  36   2.0000      -0.399142       -10.8612 
  37   2.0000      -0.395481       -10.7616 
  38   2.0000      -0.375691       -10.2231 
  39   2.0000      -0.373757       -10.1705 
  40   2.0000      -0.366868        -9.9830 
  41   2.0000      -0.356893        -9.7116 
  42   2.0000      -0.352134        -9.5820 
  43   2.0000      -0.333780        -9.0826 
  44   2.0000      -0.312635        -8.5072 
  45   2.0000      -0.307250        -8.3607 
  46   2.0000      -0.301431        -8.2024 
  47   2.0000      -0.272570        -7.4170 
  48   2.0000      -0.259352        -7.0573 
  49   2.0000      -0.255032        -6.9398 
  50   2.0000      -0.240762        -6.5515 
  51   0.0000       0.061434         1.6717 
  52   0.0000       0.081201         2.2096 
  53   0.0000       0.083933         2.2839 
  54   0.0000       0.099329         2.7029 
  55   0.0000       0.107017         2.9121 
  56   0.0000       0.110733         3.0132 
  57   0.0000       0.116611         3.1732 
  58   0.0000       0.118734         3.2309 
  59   0.0000       0.134976         3.6729 
  60   0.0000       0.136954         3.7267 
  61   0.0000       0.142176         3.8688 
  62   0.0000       0.153883         4.1874 
  63   0.0000       0.158967         4.3257 
  64   0.0000       0.162174         4.4130 
  65   0.0000       0.165022         4.4905 
  66   0.0000       0.165109         4.4928 
  67   0.0000       0.181618         4.9421 
  68   0.0000       0.189715         5.1624 
  69   0.0000       0.200216         5.4482 
  70   0.0000       0.211674         5.7599 
  71   0.0000       0.223290         6.0760 
  72   0.0000       0.225285         6.1303 
  73   0.0000       0.231413         6.2971 
  74   0.0000       0.240695         6.5496 
  75   0.0000       0.260127         7.0784 
  76   0.0000       0.268054         7.2941 
  77   0.0000       0.282523         7.6878 
  78   0.0000       0.286562         7.7978 
  79   0.0000       0.299317         8.1448 
  80   0.0000       0.321991         8.7618 
  81   0.0000       0.528626        14.3847 
  82   0.0000       0.537628        14.6296 
  83   0.0000       0.541221        14.7274 
  84   0.0000       0.552122        15.0240 
  85   0.0000       0.553051        15.0493 
  86   0.0000       0.567014        15.4292 
  87   0.0000       0.577293        15.7089 
  88   0.0000       0.583437        15.8761 
  89   0.0000       0.587799        15.9948 
  90   0.0000       0.602467        16.3940 
  91   0.0000       0.605045        16.4641 
  92   0.0000       0.623360        16.9625 
  93   0.0000       0.629693        17.1348 
  94   0.0000       0.634946        17.2778 
  95   0.0000       0.645762        17.5721 
  96   0.0000       0.650138        17.6911 
  97   0.0000       0.675615        18.3844 
  98   0.0000       0.687475        18.7071 
  99   0.0000       0.716480        19.4964 
 100   0.0000       0.723220        19.6798 
 101   0.0000       0.761611        20.7245 
 102   0.0000       0.780241        21.2314 
 103   0.0000       0.818350        22.2684 
 104   0.0000       0.823340        22.4042 
 105   0.0000       0.836284        22.7564 
 106   0.0000       0.843208        22.9449 
 107   0.0000       0.850575        23.1453 
 108   0.0000       0.860649        23.4195 
 109   0.0000       0.870119        23.6771 
 110   0.0000       0.888343        24.1730 
 111   0.0000       0.897611        24.4252 
 112   0.0000       0.902776        24.5658 
 113   0.0000       0.909999        24.7623 
 114   0.0000       0.919354        25.0169 
 115   0.0000       0.926521        25.2119 
 116   0.0000       0.928382        25.2626 
 117   0.0000       0.945562        25.7301 
 118   0.0000       0.947062        25.7709 
 119   0.0000       0.956189        26.0192 
 120   0.0000       0.967710        26.3327 
 121   0.0000       0.992253        27.0006 
 122   0.0000       1.007974        27.4284 
 123   0.0000       1.013828        27.5877 
 124   0.0000       1.025317        27.9003 
 125   0.0000       1.045679        28.4544 
 126   0.0000       1.064779        28.9741 
 127   0.0000       1.093655        29.7599 
 128   0.0000       1.127375        30.6774 
 129   0.0000       1.152129        31.3510 
 130   0.0000       1.180015        32.1099 
 131   0.0000       1.233253        33.5585 
 132   0.0000       1.274415        34.6786 
 133   0.0000       1.286528        35.0082 
 134   0.0000       1.316845        35.8332 
 135   0.0000       1.348290        36.6888 
 136   0.0000       1.392924        37.9034 
 137   0.0000       1.422088        38.6970 
 138   0.0000       1.428189        38.8630 
 139   0.0000       1.471671        40.0462 
 140   0.0000       1.499239        40.7964 
 141   0.0000       1.611262        43.8447 
 142   0.0000       1.629449        44.3396 
 143   0.0000       1.698420        46.2164 
 144   0.0000       1.738802        47.3152 
 145   0.0000       1.880939        51.1829 
 146   0.0000       1.909920        51.9716 
 147   0.0000       2.070722        56.3472 
 148   0.0000       2.125832        57.8468 

                    ********************************
                    * MULLIKEN POPULATION ANALYSIS *
                    ********************************

-----------------------
MULLIKEN ATOMIC CHARGES
-----------------------
   0 C :    0.304937
   1 C :   -0.280754
   2 C :   -0.298731
   3 C :   -0.000293
   4 O :   -0.499350
   5 H :    0.145919
   6 H :    0.146844
   7 H :    0.140356
   8 H :    0.142467
   9 H :    0.158032
  10 H :    0.156380
  11 H :    0.141598
  12 C :   -0.011545
  13 H :    0.133110
  14 H :    0.119880
  15 O :   -0.499375
  16 C :    0.074392
  17 C :    0.074818
  18 C :   -0.298008
  19 C :   -0.027851
  20 O :   -0.508477
  21 H :    0.172809
  22 O :   -0.601747
  23 H :    0.150249
  24 H :    0.165053
  25 H :    0.139663
  26 H :    0.143513
  27 H :    0.148474
  28 H :    0.367637
Sum of atomic charges:   -0.0000000

--------------------------------
MULLIKEN REDUCED ORBITAL CHARGES
--------------------------------
  0 C s       :     3.198687  s :     3.198687
      pz      :     0.816447  p :     2.496376
      px      :     0.697233
      py      :     0.982696
  1 C s       :     3.304949  s :     3.304949
      pz      :     0.984196  p :     2.975805
      px      :     1.035376
      py      :     0.956232
  2 C s       :     3.314599  s :     3.314599
      pz      :     0.908860  p :     2.984131
      px      :     1.082222
      py      :     0.993050
  3 C s       :     3.262571  s :     3.262571
      pz      :     0.918390  p :     2.737722
      px      :     1.066101
      py      :     0.753230
  4 O s       :     3.939890  s :     3.939890
      pz      :     1.253475  p :     4.559460
      px      :     1.773533
      py      :     1.532452
  5 H s       :     0.854081  s :     0.854081
  6 H s       :     0.853156  s :     0.853156
  7 H s       :     0.859644  s :     0.859644
  8 H s       :     0.857533  s :     0.857533
  9 H s       :     0.841968  s :     0.841968
 10 H s       :     0.843620  s :     0.843620
 11 H s       :     0.858402  s :     0.858402
 12 C s       :     3.256113  s :     3.256113
      pz      :     0.807775  p :     2.755431
      px      :     0.941559
      py      :     1.006098
 13 H s       :     0.866890  s :     0.866890
 14 H s       :     0.880120  s :     0.880120
 15 O s       :     3.929707  s :     3.929707
      pz      :     1.477962  p :     4.569668
      px      :     1.286715
      py      :     1.804991
 16 C s       :     3.269895  s :     3.269895
      pz      :     0.995367  p :     2.655712
      px      :     0.977665
      py      :     0.682680
 17 C s       :     3.265310  s :     3.265310
      pz      :     0.920104  p :     2.659873
      px      :     0.687320
      py      :     1.052449
 18 C s       :     3.313815  s :     3.313815
      pz      :     1.001160  p :     2.984193
      px      :     1.031927
      py      :     0.951107
 19 C s       :     3.268155  s :     3.268155
      pz      :     0.678664  p :     2.759696
      px      :     1.095736
      py      :     0.985295
 20 O s       :     3.948278  s :     3.948278
      pz      :     1.369377  p :     4.560199
      px      :     1.843106
      py      :     1.347716
 21 H s       :     0.827191  s :     0.827191
 22 O s       :     3.919609  s :     3.919609
      pz      :     1.819515  p :     4.682138
      px      :     1.422589
      py      :     1.440034
 23 H s       :     0.849751  s :     0.849751
 24 H s       :     0.834947  s :     0.834947
 25 H s       :     0.860337  s :     0.860337
 26 H s       :     0.856487  s :     0.856487
 27 H s       :     0.851526  s :     0.851526
 28 H s       :     0.632363  s :     0.632363


                     *******************************
                     * LOEWDIN POPULATION ANALYSIS *
                     *******************************

----------------------
LOEWDIN ATOMIC CHARGES
----------------------
   0 C :    0.183219
   1 C :   -0.234754
   2 C :   -0.216933
   3 C :   -0.024677
   4 O :   -0.298973
   5 H :    0.099638
   6 H :    0.115282
   7 H :    0.111964
   8 H :    0.114440
   9 H :    0.116709
  10 H :    0.110586
  11 H :    0.102455
  12 C :   -0.044170
  13 H :    0.098928
  14 H :    0.090952
  15 O :   -0.327108
  16 C :    0.016110
  17 C :    0.033987
  18 C :   -0.242426
  19 C :   -0.038362
  20 O :   -0.319629
  21 H :    0.122554
  22 O :   -0.413896
  23 H :    0.114383
  24 H :    0.127795
  25 H :    0.110248
  26 H :    0.102954
  27 H :    0.103757
  28 H :    0.284967

-------------------------------
LOEWDIN REDUCED ORBITAL CHARGES
-------------------------------
  0 C s       :     2.953333  s :     2.953333
      pz      :     0.936042  p :     2.863448
      px      :     0.854404
      py      :     1.073002
  1 C s       :     2.981020  s :     2.981020
      pz      :     1.074475  p :     3.253734
      px      :     1.109895
      py      :     1.069364
  2 C s       :     2.971221  s :     2.971221
      pz      :     1.032271  p :     3.245712
      px      :     1.131824
      py      :     1.081618
  3 C s       :     2.984026  s :     2.984026
      pz      :     1.021639  p :     3.040651
      px      :     1.125182
      py      :     0.893830
  4 O s       :     3.592022  s :     3.592022
      pz      :     1.325826  p :     4.706952
      px      :     1.801802
      py      :     1.579324
  5 H s       :     0.900362  s :     0.900362
  6 H s       :     0.884718  s :     0.884718
  7 H s       :     0.888036  s :     0.888036
  8 H s       :     0.885560  s :     0.885560
  9 H s       :     0.883291  s :     0.883291
 10 H s       :     0.889414  s :     0.889414
 11 H s       :     0.897545  s :     0.897545
 12 C s       :     2.976909  s :     2.976909
      pz      :     0.930485  p :     3.067261
      px      :     1.047110
      py      :     1.089667
 13 H s       :     0.901072  s :     0.901072
 14 H s       :     0.909048  s :     0.909048
 15 O s       :     3.591973  s :     3.591973
      pz      :     1.543399  p :     4.735136
      px      :     1.354151
      py      :     1.837586
 16 C s       :     2.964273  s :     2.964273
      pz      :     1.092201  p :     3.019617
      px      :     1.072533
      py      :     0.854884
 17 C s       :     2.952777  s :     2.952777
      pz      :     1.051696  p :     3.013236
      px      :     0.869829
      py      :     1.091711
 18 C s       :     2.985142  s :     2.985142
      pz      :     1.089766  p :     3.257284
      px      :     1.104529
      py      :     1.062989
 19 C s       :     2.984085  s :     2.984085
      pz      :     0.826666  p :     3.054277
      px      :     1.140947
      py      :     1.086664
 20 O s       :     3.606130  s :     3.606130
      pz      :     1.432234  p :     4.713499
      px      :     1.867487
      py      :     1.413778
 21 H s       :     0.877446  s :     0.877446
 22 O s       :     3.612897  s :     3.612897
      pz      :     1.831923  p :     4.800999
      px      :     1.482401
      py      :     1.486676
 23 H s       :     0.885617  s :     0.885617
 24 H s       :     0.872205  s :     0.872205
 25 H s       :     0.889752  s :     0.889752
 26 H s       :     0.897046  s :     0.897046
 27 H s       :     0.896243  s :     0.896243
 28 H s       :     0.715033  s :     0.715033


                      *****************************
                      * MAYER POPULATION ANALYSIS *
                      *****************************

  NA   - Mulliken gross atomic population
  ZA   - Total nuclear charge
  QA   - Mulliken gross atomic charge
  VA   - Mayer's total valence
  BVA  - Mayer's bonded valence
  FA   - Mayer's free valence

  ATOM       NA         ZA         QA         VA         BVA        FA
  0 C      5.6951     6.0000     0.3049     3.6754     3.6754    -0.0000
  1 C      6.2808     6.0000    -0.2808     3.7110     3.7110    -0.0000
  2 C      6.2987     6.0000    -0.2987     3.7658     3.7658    -0.0000
  3 C      6.0003     6.0000    -0.0003     3.6597     3.6597     0.0000
  4 O      8.4993     8.0000    -0.4993     1.8091     1.8091     0.0000
  5 H      0.8541     1.0000     0.1459     0.9314     0.9314    -0.0000
  6 H      0.8532     1.0000     0.1468     0.9329     0.9329     0.0000
  7 H      0.8596     1.0000     0.1404     0.9395     0.9395    -0.0000
  8 H      0.8575     1.0000     0.1425     0.9368     0.9368    -0.0000
  9 H      0.8420     1.0000     0.1580     0.9348     0.9348     0.0000
 10 H      0.8436     1.0000     0.1564     0.9252     0.9252     0.0000
 11 H      0.8584     1.0000     0.1416     0.9291     0.9291     0.0000
 12 C      6.0115     6.0000    -0.0115     3.6329     3.6329    -0.0000
 13 H      0.8669     1.0000     0.1331     0.9282     0.9282    -0.0000
 14 H      0.8801     1.0000     0.1199     0.9417     0.9417     0.0000
 15 O      8.4994     8.0000    -0.4994     1.7389     1.7389     0.0000
 16 C      5.9256     6.0000     0.0744     3.5948     3.5948     0.0000
 17 C      5.9252     6.0000     0.0748     3.6438     3.6438    -0.0000
 18 C      6.2980     6.0000    -0.2980     3.6882     3.6882    -0.0000
 19 C      6.0279     6.0000    -0.0279     3.6705     3.6705     0.0000
 20 O      8.5085     8.0000    -0.5085     1.7845     1.7845    -0.0000
 21 H      0.8272     1.0000     0.1728     0.9320     0.9320     0.0000
 22 O      8.6017     8.0000    -0.6017     1.7453     1.7453    -0.0000
 23 H      0.8498     1.0000     0.1502     0.9366     0.9366    -0.0000
 24 H      0.8349     1.0000     0.1651     0.9393     0.9393    -0.0000
 25 H      0.8603     1.0000     0.1397     0.9365     0.9365    -0.0000
 26 H      0.8565     1.0000     0.1435     0.9277     0.9277    -0.0000
 27 H      0.8515     1.0000     0.1485     0.9283     0.9283    -0.0000
 28 H      0.6324     1.0000     0.3676     0.8312     0.8312    -0.0000

  Mayer bond orders larger than 0.100000
B(  0-C ,  1-C ) :   0.9258 B(  0-C ,  4-O ) :   0.9421 B(  0-C ,  5-H ) :   0.9192 
B(  0-C , 15-O ) :   0.8329 B(  1-C ,  2-C ) :   0.9514 B(  1-C ,  6-H ) :   0.9339 
B(  1-C ,  7-H ) :   0.9330 B(  2-C ,  3-C ) :   0.9559 B(  2-C ,  8-H ) :   0.9451 
B(  2-C ,  9-H ) :   0.9450 B(  3-C ,  4-O ) :   0.8356 B(  3-C , 10-H ) :   0.9341 
B(  3-C , 11-H ) :   0.9397 B( 12-C , 13-H ) :   0.9152 B( 12-C , 14-H ) :   0.9176 
B( 12-C , 15-O ) :   0.8538 B( 12-C , 16-C ) :   0.8896 B( 16-C , 17-C ) :   0.8975 
B( 16-C , 20-O ) :   0.8666 B( 16-C , 21-H ) :   0.9235 B( 17-C , 18-C ) :   0.9101 
B( 17-C , 22-O ) :   0.8957 B( 17-C , 23-H ) :   0.9327 B( 18-C , 19-C ) :   0.9393 
B( 18-C , 24-H ) :   0.9376 B( 18-C , 25-H ) :   0.9340 B( 19-C , 20-O ) :   0.8532 
B( 19-C , 26-H ) :   0.9350 B( 19-C , 27-H ) :   0.9376 B( 22-O , 28-H ) :   0.7923 


-------
TIMINGS
-------

Total SCF time: 0 days 0 hours 1 min 30 sec 

Total time                  ....      90.821 sec
Sum of individual times     ....      90.053 sec  ( 99.2%)

Fock matrix formation       ....      85.154 sec  ( 93.8%)
  XC integration            ....       8.669 sec  ( 10.2% of F)
    Basis function eval.    ....       2.053 sec  ( 23.7% of XC)
    Density eval.           ....       1.057 sec  ( 12.2% of XC)
    XC-Functional eval.     ....       0.472 sec  (  5.4% of XC)
    XC-Potential eval.      ....       1.187 sec  ( 13.7% of XC)
Diagonalization             ....       0.009 sec  (  0.0%)
Density matrix formation    ....       0.003 sec  (  0.0%)
Population analysis         ....       0.105 sec  (  0.1%)
Initial guess               ....       0.007 sec  (  0.0%)
Orbital Transformation      ....       0.000 sec  (  0.0%)
Orbital Orthonormalization  ....       0.004 sec  (  0.0%)
DIIS solution               ....       0.002 sec  (  0.0%)
SOSCF solution              ....       0.074 sec  (  0.1%)
Grid generation             ....       4.699 sec  (  5.2%)

-------------------------   --------------------
FINAL SINGLE POINT ENERGY      -652.856349636495
-------------------------   --------------------

                                *** OPTIMIZATION RUN DONE ***

                            ***************************************
                            *     ORCA property calculations      *
                            ***************************************

                                    ---------------------
                                    Active property flags
                                    ---------------------
   (+) Dipole Moment


------------------------------------------------------------------------------
                       ORCA ELECTRIC PROPERTIES CALCULATION
------------------------------------------------------------------------------

Dipole Moment Calculation                       ... on
Quadrupole Moment Calculation                   ... off
Polarizability Calculation                      ... off
GBWName                                         ... project_8052/ensemble_180_135.gbw
Electron density file                           ... project_8052/ensemble_180_135.scfp
The origin for moment calculation is the CENTER OF MASS  = (-43.248498, 49.521972 85.559537)

-------------
DIPOLE MOMENT
-------------
                                X             Y             Z
Electronic contribution:     -3.70320      -4.08429       2.23595
Nuclear contribution   :      4.56056       5.07042      -3.19914
                        -----------------------------------------
Total Dipole Moment    :      0.85736       0.98614      -0.96319
                        -----------------------------------------
Magnitude (a.u.)       :      1.62335
Magnitude (Debye)      :      4.12622



--------------------
Rotational spectrum 
--------------------
 
Rotational constants in cm-1:     0.068104     0.011415     0.011121 
Rotational constants in MHz :  2041.707975   342.221022   333.386997 

 Dipole components along the rotational axes: 
x,y,z [a.u.] :     0.297811     0.591130    -1.482272 
x,y,z [Debye]:     0.756975     1.502533    -3.767637 

 

Timings for individual modules:

Sum of individual times         ...     1314.614 sec (=  21.910 min)
GTO integral calculation        ...        6.630 sec (=   0.111 min)   0.5 %
SCF iterations                  ...     1023.429 sec (=  17.057 min)  77.9 %
SCF Gradient evaluation         ...      281.947 sec (=   4.699 min)  21.4 %
Geometry relaxation             ...        2.608 sec (=   0.043 min)   0.2 %
                             ****ORCA TERMINATED NORMALLY****
TOTAL RUN TIME: 0 days 0 hours 22 minutes 9 seconds 374 msec
