
                                 *****************
                                 * O   R   C   A *
                                 *****************

           --- An Ab Initio, DFT and Semiempirical electronic structure package ---

                  #######################################################
                  #                        -***-                        #
                  #          Department of theory and spectroscopy      #
                  #               Directorship: Frank Neese             #
                  #        Max Planck Institute fuer Kohlenforschung    #
                  #                Kaiser Wilhelm Platz 1               #
                  #                 D-45470 Muelheim/Ruhr               #
                  #                      Germany                        #
                  #                                                     #
                  #                  All rights reserved                #
                  #                        -***-                        #
                  #######################################################


                         Program Version 4.2.0 -  RELEASE  -


 With contributions from (in alphabetic order):
   Daniel Aravena         : Magnetic Suceptibility
   Michael Atanasov       : Ab Initio Ligand Field Theory (pilot matlab implementation)
   Alexander A. Auer      : GIAO ZORA, VPT2
   Ute Becker             : Parallelization
   Giovanni Bistoni       : ED, misc. LED, open-shell LED, HFLED
   Martin Brehm           : Molecular dynamics
   Dmytro Bykov           : SCF Hessian
   Vijay G. Chilkuri      : MRCI spin determinant printing, contributions to CSF-ICE
   Dipayan Datta          : RHF DLPNO-CCSD density
   Achintya Kumar Dutta   : EOM-CC, STEOM-CC
   Dmitry Ganyushin       : Spin-Orbit,Spin-Spin,Magnetic field MRCI
   Miquel Garcia          : C-PCM Hessian, Gaussian charge scheme
   Yang Guo               : DLPNO-NEVPT2, CIM, IAO-localization
   Andreas Hansen         : Spin unrestricted coupled pair/coupled cluster methods
   Benjamin Helmich-Paris : CASSCF linear response (MC-RPA)
   Lee Huntington         : MR-EOM, pCC
   Robert Izsak           : Overlap fitted RIJCOSX, COSX-SCS-MP3, EOM
   Christian Kollmar      : KDIIS, OOCD, Brueckner-CCSD(T), CCSD density
   Simone Kossmann        : Meta GGA functionals, TD-DFT gradient, OOMP2, MP2 Hessian
   Martin Krupicka        : AUTO-CI
   Lucas Lang             : DCDCAS
   Dagmar Lenk            : GEPOL surface, SMD
   Dimitrios Liakos       : Extrapolation schemes; Compound Job, initial MDCI parallelization
   Dimitrios Manganas     : Further ROCIS development; embedding schemes
   Dimitrios Pantazis     : SARC Basis sets
   Taras Petrenko         : DFT Hessian,TD-DFT gradient, ASA, ECA, R-Raman, ABS, FL, XAS/XES, NRVS
   Peter Pinski           : DLPNO-MP2, DLPNO-MP2 Gradient
   Christoph Reimann      : Effective Core Potentials
   Marius Retegan         : Local ZFS, SOC
   Christoph Riplinger    : Optimizer, TS searches, QM/MM, DLPNO-CCSD(T), (RO)-DLPNO pert. Triples
   Tobias Risthaus        : Range-separated hybrids, TD-DFT gradient, RPA, STAB
   Michael Roemelt        : Original ROCIS implementation
   Masaaki Saitow         : Open-shell DLPNO-CCSD energy and density
   Barbara Sandhoefer     : DKH picture change effects
   Avijit Sen             : IP-ROCIS
   Kantharuban Sivalingam : CASSCF convergence, NEVPT2, FIC-MRCI
   Bernardo de Souza      : ESD, SOC TD-DFT
   Georgi Stoychev        : AutoAux, RI-MP2 NMR
   Willem Van den Heuvel  : Paramagnetic NMR
   Boris Wezisla          : Elementary symmetry handling
   Frank Wennmohs         : Technical directorship


 We gratefully acknowledge several colleagues who have allowed us to
 interface, adapt or use parts of their codes:
   Stefan Grimme, W. Hujo, H. Kruse,             : VdW corrections, initial TS optimization,
                  C. Bannwarth                     DFT functionals, gCP, sTDA/sTD-DF
   Ed Valeev, F. Pavosevic, A. Kumar             : LibInt (2-el integral package), F12 methods
   Garnet Chan, S. Sharma, J. Yang, R. Olivares  : DMRG
   Ulf Ekstrom                                   : XCFun DFT Library
   Mihaly Kallay                                 : mrcc  (arbitrary order and MRCC methods)
   Andreas Klamt, Michael Diedenhofen            : otool_cosmo (COSMO solvation model)
   Jiri Pittner, Ondrej Demel                    : Mk-CCSD
   Frank Weinhold                                : gennbo (NPA and NBO analysis)
   Christopher J. Cramer and Donald G. Truhlar   : smd solvation model
   Lars Goerigk                                  : TD-DFT with DH, B97 family of functionals
   V. Asgeirsson, H. Jonsson                     : NEB implementation
   FAccTs GmbH                                   : IRC, NEB, NEB-TS, Multilevel, MM, QM/MM, CI optimization
   S Lehtola, MJT Oliveira, MAL Marques          : LibXC Library


 Your calculation uses the libint2 library for the computation of 2-el integrals
 For citations please refer to: http://libint.valeyev.net

 Your ORCA version has been built with support for libXC version: 4.2.3
 For citations please refer to: https://tddft.org/programs/libxc/

 This ORCA versions uses:
   CBLAS   interface :  Fast vector & matrix operations
   LAPACKE interface :  Fast linear algebra routines
   SCALAPACK package :  Parallel linear algebra routines


----- Orbital basis set information -----
Your calculation utilizes the basis: 6-31G
   H-He, Li-Ne : W. J. Hehre, R. Ditchfield and J.A. Pople, J. Chem. Phys. 56, 2257 (1972).
                 Note: He and Ne are unpublished basis sets taken from the Gaussian program.
                 Note: Li and B from J. D. Dill and J. A. Pople, J. Chem. Phys. 62, 2921 (1975).
   Na - Ar     : M. M. Francl, W. J. Pietro, W. J. Hehre, J. S. Binkley, M. S. Gordon, 
                 D. J. DeFrees and J. A. Pople, J. Chem. Phys. 77, 3654 (1982).
   K - Zn      : V. A. Rassolov, J. A. Pople, M. A. Ratner, and T. L. Windus, J. Chem. Phys. 109, 1223 (1998).

================================================================================
                                        WARNINGS
                       Please study these warnings very carefully!
================================================================================


WARNING: Geometry Optimization
  ===> : Switching off AutoStart
         For restart on a previous wavefunction, please use MOREAD

INFO   : the flag for use of LIBINT has been found!

================================================================================
                                       INPUT FILE
================================================================================
NAME = project_8053/ensemble_300_315.inp
|  1> # Test redundant internal optimization
|  2> #
|  3> ! RKS B3LYP  Opt TightSCF SmallPrint
|  4> 
|  5> %basis
|  6>         Basis "6-31G"
|  7> end
|  8> 
|  9> %geom
| 10> Constraints
| 11> { D 4  0  15  12  300.0   C } # D for Dihedral angle
| 12> { D 0  15  12  16  315.0   C } # D for Dihedral angle
| 13> { D 0  4  3  2   C } # D for Dihedral angle
| 14> { D 4  3  2  1   C } # D for Dihedral angle
| 15> { D 3  2  1  0   C } # D for Dihedral angle
| 16> { D 2  1  0  4   C } # D for Dihedral angle
| 17> { D 1  0  4  3   C } # D for Dihedral angle
| 18> { D 16  20  19  18   C } # D for Dihedral angle
| 19> { D 20  19  18  17   C } # D for Dihedral angle
| 20> { D 19  18  17  16   C } # D for Dihedral angle
| 21> { D 18  17  16  20   C } # D for Dihedral angle
| 22> { D 17  16  20  19   C } # D for Dihedral angle
| 23> { D 15  12  16  20   C } # D for Dihedral angle
| 24> end
| 25> end
| 26> 
| 27> 
| 28> #%pal 
| 29> #nprocs 8
| 30> #end
| 31> 
| 32> * xyz 0 1
| 33> C  -21.048   26.222   46.251
| 34> C  -20.361   27.558   45.944
| 35> C  -20.329   28.222   47.341
| 36> C  -20.110   27.022   48.296
| 37> O  -20.473   25.807   47.535
| 38> H  -20.833   25.428   45.533
| 39> H  -19.344   27.382   45.576
| 40> H  -20.898   28.157   45.201
| 41> H  -19.543   28.978   47.434
| 42> H  -21.289   28.710   47.548
| 43> H  -20.733   27.082   49.195
| 44> H  -19.064   26.913   48.597
| 45> C  -23.362   25.116   46.798
| 46> H  -23.213   24.941   47.871
| 47> H  -24.437   25.242   46.616
| 48> O  -22.586   26.394   46.375
| 49> C  -22.897   23.849   46.027
| 50> C  -23.759   22.634   46.384
| 51> C  -25.022   22.882   45.525
| 52> C  -24.452   23.535   44.242
| 53> O  -23.099   24.024   44.585
| 54> H  -21.826   23.707   46.185
| 55> H  -23.256   21.711   46.074
| 56> O  -24.074   22.533   47.902
| 57> H  -25.579   21.963   45.314
| 58> H  -25.699   23.572   46.042
| 59> H  -25.060   24.378   43.894
| 60> H  -24.338   22.819   43.423
| 61> H  -24.579   23.446   48.236
| 62> *
| 63> 
| 64>                          ****END OF INPUT****
================================================================================

                       *****************************
                       * Geometry Optimization Run *
                       *****************************

Geometry optimization settings:
Update method            Update   .... BFGS
Choice of coordinates    CoordSys .... Z-matrix Internals
Initial Hessian          InHess   .... Almoef's Model

Convergence Tolerances:
Energy Change            TolE     ....  5.0000e-06 Eh
Max. Gradient            TolMAXG  ....  3.0000e-04 Eh/bohr
RMS Gradient             TolRMSG  ....  1.0000e-04 Eh/bohr
Max. Displacement        TolMAXD  ....  4.0000e-03 bohr
RMS Displacement         TolRMSD  ....  2.0000e-03 bohr
Strict Convergence                ....  False
------------------------------------------------------------------------------
                        ORCA OPTIMIZATION COORDINATE SETUP
------------------------------------------------------------------------------

The optimization will be done in new redundant internal coordinates
Making redundant internal coordinates   ...  (new redundants) done
Evaluating the initial hessian          ...  (Almloef) done
Evaluating the coordinates              ...  done
Calculating the B-matrix                .... done
Calculating the G-matrix                .... done
Diagonalizing the G-matrix              .... done
Imposing constraints:
 Iter   0:  RMS(Cart)=    0.0001116980 RMS(Int)=    0.0000311377
 Iter   1:  RMS(Cart)=    0.0000548311 RMS(Int)=    0.0000168967
 Iter   2:  RMS(Cart)=    0.0000278077 RMS(Int)=    0.0000100501
 Iter   3:  RMS(Cart)=    0.0000147499 RMS(Int)=    0.0000065702
 Iter   4:  RMS(Cart)=    0.0000082759 RMS(Int)=    0.0000046835
 Iter   5:  RMS(Cart)=    0.0000049356 RMS(Int)=    0.0000036098
 Iter   6:  RMS(Cart)=    0.0000031150 RMS(Int)=    0.0000029836
 Iter   7:  RMS(Cart)=    0.0000020601 RMS(Int)=    0.0000026124
 Iter   8:  RMS(Cart)=    0.0000014154 RMS(Int)=    0.0000023853
 Iter   9:  RMS(Cart)=    0.0000010070 RMS(Int)=    0.0000022377
 Iter  10:  RMS(Cart)=    0.0000007444 RMS(Int)=    0.0000021330
 Iter  11:  RMS(Cart)=    0.0000005763 RMS(Int)=    0.0000020514
 Iter  12:  RMS(Cart)=    0.0000004703 RMS(Int)=    0.0000019826
 Iter  13:  RMS(Cart)=    0.0000004044 RMS(Int)=    0.0000019211
 Iter  14:  RMS(Cart)=    0.0000003632 RMS(Int)=    0.0000018642
 Iter  15:  RMS(Cart)=    0.0000003366 RMS(Int)=    0.0000018103
 Iter  16:  RMS(Cart)=    0.0000003182 RMS(Int)=    0.0000017589
 Iter  17:  RMS(Cart)=    0.0000003045 RMS(Int)=    0.0000017094
 Iter  18:  RMS(Cart)=    0.0000002934 RMS(Int)=    0.0000016616
 Iter  19:  RMS(Cart)=    0.0000002838 RMS(Int)=    0.0000016153
 Iter  20:  RMS(Cart)=    0.0000002751 RMS(Int)=    0.0000015706
 Iter  21:  RMS(Cart)=    0.0000002671 RMS(Int)=    0.0000015272
 Iter  22:  RMS(Cart)=    0.0000002594 RMS(Int)=    0.0000014852
 Iter  23:  RMS(Cart)=    0.0000002521 RMS(Int)=    0.0000014445
 Iter  24:  RMS(Cart)=    0.0000002451 RMS(Int)=    0.0000014051
 Iter  25:  RMS(Cart)=    0.0000002383 RMS(Int)=    0.0000013669
 Iter  26:  RMS(Cart)=    0.0000002318 RMS(Int)=    0.0000013298
 Iter  27:  RMS(Cart)=    0.0000002255 RMS(Int)=    0.0000012938
 Iter  28:  RMS(Cart)=    0.0000002193 RMS(Int)=    0.0000012590
 Iter  29:  RMS(Cart)=    0.0000002134 RMS(Int)=    0.0000012252
 Iter  30:  RMS(Cart)=    0.0000002076 RMS(Int)=    0.0000011924
 Iter  31:  RMS(Cart)=    0.0000002020 RMS(Int)=    0.0000011607
 Iter  32:  RMS(Cart)=    0.0000001966 RMS(Int)=    0.0000011298
 Iter  33:  RMS(Cart)=    0.0000001913 RMS(Int)=    0.0000010999
 Iter  34:  RMS(Cart)=    0.0000001862 RMS(Int)=    0.0000010709
 Iter  35:  RMS(Cart)=    0.0000001812 RMS(Int)=    0.0000010428
 Iter  36:  RMS(Cart)=    0.0000001764 RMS(Int)=    0.0000010155
 Iter  37:  RMS(Cart)=    0.0000001717 RMS(Int)=    0.0000009890
 Iter  38:  RMS(Cart)=    0.0000001672 RMS(Int)=    0.0000009633
 Iter  39:  RMS(Cart)=    0.0000001627 RMS(Int)=    0.0000009383
 Iter  40:  RMS(Cart)=    0.0000001585 RMS(Int)=    0.0000009141
 Iter  41:  RMS(Cart)=    0.0000001543 RMS(Int)=    0.0000008906
 Iter  42:  RMS(Cart)=    0.0000001502 RMS(Int)=    0.0000008678
 Iter  43:  RMS(Cart)=    0.0000001463 RMS(Int)=    0.0000008457
 Iter  44:  RMS(Cart)=    0.0000001425 RMS(Int)=    0.0000008242
 Iter  45:  RMS(Cart)=    0.0000001388 RMS(Int)=    0.0000008034
 Iter  46:  RMS(Cart)=    0.0000001352 RMS(Int)=    0.0000007831
 Iter  47:  RMS(Cart)=    0.0000001317 RMS(Int)=    0.0000007634
 Iter  48:  RMS(Cart)=    0.0000001283 RMS(Int)=    0.0000007443
 Iter  49:  RMS(Cart)=    0.0000001250 RMS(Int)=    0.0000007258
 Iter  50:  RMS(Cart)=    0.0000001218 RMS(Int)=    0.0000007078
 Iter  51:  RMS(Cart)=    0.0000001186 RMS(Int)=    0.0000006903
 Iter  52:  RMS(Cart)=    0.0000001156 RMS(Int)=    0.0000006733
 Iter  53:  RMS(Cart)=    0.0000001126 RMS(Int)=    0.0000006568
 Iter  54:  RMS(Cart)=    0.0000001098 RMS(Int)=    0.0000006408
 Iter  55:  RMS(Cart)=    0.0000001070 RMS(Int)=    0.0000006252
 Iter  56:  RMS(Cart)=    0.0000001043 RMS(Int)=    0.0000006100
 Iter  57:  RMS(Cart)=    0.0000001016 RMS(Int)=    0.0000005953
 Iter  58:  RMS(Cart)=    0.0000000991 RMS(Int)=    0.0000005811
 Iter  59:  RMS(Cart)=    0.0000000966 RMS(Int)=    0.0000005672
 Iter  60:  RMS(Cart)=    0.0000000941 RMS(Int)=    0.0000005537
 Iter  61:  RMS(Cart)=    0.0000000918 RMS(Int)=    0.0000005406
 Iter  62:  RMS(Cart)=    0.0000000895 RMS(Int)=    0.0000005278
 Iter  63:  RMS(Cart)=    0.0000000873 RMS(Int)=    0.0000005154
 Iter  64:  RMS(Cart)=    0.0000000851 RMS(Int)=    0.0000005034
 Iter  65:  RMS(Cart)=    0.0000000830 RMS(Int)=    0.0000004917
 Iter  66:  RMS(Cart)=    0.0000000809 RMS(Int)=    0.0000004803
 Iter  67:  RMS(Cart)=    0.0000000789 RMS(Int)=    0.0000004692
 Iter  68:  RMS(Cart)=    0.0000000770 RMS(Int)=    0.0000004584
 Iter  69:  RMS(Cart)=    0.0000000751 RMS(Int)=    0.0000004480
 Iter  70:  RMS(Cart)=    0.0000000733 RMS(Int)=    0.0000004378
 Iter  71:  RMS(Cart)=    0.0000000715 RMS(Int)=    0.0000004279
 Iter  72:  RMS(Cart)=    0.0000000697 RMS(Int)=    0.0000004183
 Iter  73:  RMS(Cart)=    0.0000000680 RMS(Int)=    0.0000004089
 Iter  74:  RMS(Cart)=    0.0000000664 RMS(Int)=    0.0000003998
 Iter  75:  RMS(Cart)=    0.0000000648 RMS(Int)=    0.0000003909
 Iter  76:  RMS(Cart)=    0.0000000632 RMS(Int)=    0.0000003823
 Iter  77:  RMS(Cart)=    0.0000000617 RMS(Int)=    0.0000003739
 Iter  78:  RMS(Cart)=    0.0000000602 RMS(Int)=    0.0000003657
 Iter  79:  RMS(Cart)=    0.0000000588 RMS(Int)=    0.0000003578
 Iter  80:  RMS(Cart)=    0.0000000574 RMS(Int)=    0.0000003500
 Iter  81:  RMS(Cart)=    0.0000000560 RMS(Int)=    0.0000003425
 Iter  82:  RMS(Cart)=    0.0000000547 RMS(Int)=    0.0000003352
 Iter  83:  RMS(Cart)=    0.0000000534 RMS(Int)=    0.0000003280
 Iter  84:  RMS(Cart)=    0.0000000521 RMS(Int)=    0.0000003211
 Iter  85:  RMS(Cart)=    0.0000000509 RMS(Int)=    0.0000003143
 Iter  86:  RMS(Cart)=    0.0000000497 RMS(Int)=    0.0000003077
 Iter  87:  RMS(Cart)=    0.0000000485 RMS(Int)=    0.0000003013
 Iter  88:  RMS(Cart)=    0.0000000474 RMS(Int)=    0.0000002951
 Iter  89:  RMS(Cart)=    0.0000000463 RMS(Int)=    0.0000002890
 Iter  90:  RMS(Cart)=    0.0000000452 RMS(Int)=    0.0000002830
 Iter  91:  RMS(Cart)=    0.0000000441 RMS(Int)=    0.0000002773
 Iter  92:  RMS(Cart)=    0.0000000431 RMS(Int)=    0.0000002716
 Iter  93:  RMS(Cart)=    0.0000000421 RMS(Int)=    0.0000002662
 Iter  94:  RMS(Cart)=    0.0000000411 RMS(Int)=    0.0000002608
 Iter  95:  RMS(Cart)=    0.0000000402 RMS(Int)=    0.0000002556
 Iter  96:  RMS(Cart)=    0.0000000393 RMS(Int)=    0.0000002505
 Iter  97:  RMS(Cart)=    0.0000000384 RMS(Int)=    0.0000002456
 Iter  98:  RMS(Cart)=    0.0000000375 RMS(Int)=    0.0000002408
 Iter  99:  RMS(Cart)=    0.0000000367 RMS(Int)=    0.0000002361
 RMS(Cart) too big - taking linear step, building new B-matrix and trying again
Imposing constraints:
 Iter   0:  RMS(Cart)=    0.0000548303 RMS(Int)=    0.0000168967
 Iter   1:  RMS(Cart)=    0.0000278073 RMS(Int)=    0.0000100502
 Iter   2:  RMS(Cart)=    0.0000147498 RMS(Int)=    0.0000065703
 Iter   3:  RMS(Cart)=    0.0000082758 RMS(Int)=    0.0000046835
 Iter   4:  RMS(Cart)=    0.0000049356 RMS(Int)=    0.0000036097
 Iter   5:  RMS(Cart)=    0.0000031150 RMS(Int)=    0.0000029835
 Iter   6:  RMS(Cart)=    0.0000020602 RMS(Int)=    0.0000026123
 Iter   7:  RMS(Cart)=    0.0000014154 RMS(Int)=    0.0000023852
 Iter   8:  RMS(Cart)=    0.0000010069 RMS(Int)=    0.0000022376
 Iter   9:  RMS(Cart)=    0.0000007444 RMS(Int)=    0.0000021328
 Iter  10:  RMS(Cart)=    0.0000005763 RMS(Int)=    0.0000020513
 Iter  11:  RMS(Cart)=    0.0000004703 RMS(Int)=    0.0000019825
 Iter  12:  RMS(Cart)=    0.0000004043 RMS(Int)=    0.0000019210
 Iter  13:  RMS(Cart)=    0.0000003632 RMS(Int)=    0.0000018641
 Iter  14:  RMS(Cart)=    0.0000003366 RMS(Int)=    0.0000018103
 Iter  15:  RMS(Cart)=    0.0000003182 RMS(Int)=    0.0000017588
 Iter  16:  RMS(Cart)=    0.0000003045 RMS(Int)=    0.0000017093
 Iter  17:  RMS(Cart)=    0.0000002934 RMS(Int)=    0.0000016615
 Iter  18:  RMS(Cart)=    0.0000002838 RMS(Int)=    0.0000016153
 Iter  19:  RMS(Cart)=    0.0000002751 RMS(Int)=    0.0000015705
 Iter  20:  RMS(Cart)=    0.0000002671 RMS(Int)=    0.0000015272
 Iter  21:  RMS(Cart)=    0.0000002594 RMS(Int)=    0.0000014852
 Iter  22:  RMS(Cart)=    0.0000002521 RMS(Int)=    0.0000014445
 Iter  23:  RMS(Cart)=    0.0000002451 RMS(Int)=    0.0000014051
 Iter  24:  RMS(Cart)=    0.0000002383 RMS(Int)=    0.0000013668
 Iter  25:  RMS(Cart)=    0.0000002318 RMS(Int)=    0.0000013298
 Iter  26:  RMS(Cart)=    0.0000002254 RMS(Int)=    0.0000012938
 Iter  27:  RMS(Cart)=    0.0000002193 RMS(Int)=    0.0000012590
 Iter  28:  RMS(Cart)=    0.0000002134 RMS(Int)=    0.0000012252
 Iter  29:  RMS(Cart)=    0.0000002076 RMS(Int)=    0.0000011924
 Iter  30:  RMS(Cart)=    0.0000002020 RMS(Int)=    0.0000011606
 Iter  31:  RMS(Cart)=    0.0000001966 RMS(Int)=    0.0000011298
 Iter  32:  RMS(Cart)=    0.0000001913 RMS(Int)=    0.0000010999
 Iter  33:  RMS(Cart)=    0.0000001862 RMS(Int)=    0.0000010709
 Iter  34:  RMS(Cart)=    0.0000001812 RMS(Int)=    0.0000010428
 Iter  35:  RMS(Cart)=    0.0000001764 RMS(Int)=    0.0000010155
 Iter  36:  RMS(Cart)=    0.0000001717 RMS(Int)=    0.0000009890
CONVERGED
Small eigenvalue found = 8.229e-03
Small eigenvalue found = 1.395e-02
Small eigenvalue found = 1.834e-02
Small eigenvalue found = 2.956e-02
The first mode is                       ....   91
The number of degrees of freedom        ....   81
Storing new coordinates                 .... done

    -----------------------------------------------------------------
                    Redundant Internal Coordinates


    -----------------------------------------------------------------
         Definition                    Initial Value    Approx d2E/dq
    -----------------------------------------------------------------
      1. B(C   1,C   0)                  1.5333         0.369027   
      2. B(C   2,C   1)                  1.5471         0.350825   
      3. B(C   3,C   2)                  1.5492         0.348147   
      4. B(O   4,C   0)                  1.4668         0.422031   
      5. B(O   4,C   3)                  1.4789         0.403699   
      6. B(H   5,C   0)                  1.0919         0.357632   
      7. B(H   6,C   1)                  1.0958         0.352561   
      8. B(H   7,C   1)                  1.0951         0.353431   
      9. B(H   8,C   2)                  1.0945         0.354166   
     10. B(H   9,C   2)                  1.0966         0.351438   
     11. B(H  10,C   3)                  1.0954         0.353010   
     12. B(H  11,C   3)                  1.0939         0.354989   
     13. B(H  13,C  12)                  1.0973         0.350520   
     14. B(H  14,C  12)                  1.0976         0.350244   
     15. B(O  15,C   0)                  1.5525         0.307993   
     16. B(O  15,C  12)                  1.5538         0.306545   
     17. B(C  16,C  12)                  1.5543         0.341628   
     18. B(C  17,C  16)                  1.5319         0.370976   
     19. B(C  18,C  17)                  1.5474         0.350398   
     20. B(C  19,C  18)                  1.5484         0.349217   
     21. B(O  20,C  16)                  1.4666         0.422408   
     22. B(O  20,C  19)                  1.4790         0.403566   
     23. B(H  21,C  16)                  1.0919         0.357641   
     24. B(H  22,C  17)                  1.0959         0.352355   
     25. B(O  23,C  17)                  1.5536         0.306777   
     26. B(H  24,C  18)                  1.0951         0.353365   
     27. B(H  25,C  18)                  1.0962         0.351953   
     28. B(H  26,C  19)                  1.0961         0.352131   
     29. B(H  27,C  19)                  1.0938         0.355099   
     30. B(H  28,O  23)                  1.0955         0.316056   
     31. A(O   4,C   0,H   5)          107.0212         0.328541   
     32. A(C   1,C   0,O  15)          111.3023         0.348740   
     33. A(C   1,C   0,O   4)          104.2486         0.367935   
     34. A(O   4,C   0,O  15)          110.4734         0.354548   
     35. A(C   1,C   0,H   5)          114.4379         0.323302   
     36. A(H   5,C   0,O  15)          109.1574         0.312058   
     37. A(C   0,C   1,C   2)          101.6796         0.358729   
     38. A(C   2,C   1,H   7)          112.8320         0.320016   
     39. A(C   2,C   1,H   6)          110.6708         0.319888   
     40. A(C   0,C   1,H   6)          110.0677         0.322546   
     41. A(H   6,C   1,H   7)          108.3681         0.289027   
     42. A(C   0,C   1,H   7)          113.1243         0.322677   
     43. A(C   1,C   2,H   8)          112.8318         0.320125   
     44. A(C   1,C   2,C   3)          103.1269         0.355196   
     45. A(C   1,C   2,H   9)          110.0800         0.319721   
     46. A(C   3,C   2,H   9)          110.6152         0.319321   
     47. A(C   3,C   2,H   8)          112.4038         0.319725   
     48. A(H   8,C   2,H   9)          107.7728         0.288977   
     49. A(O   4,C   3,H  10)          109.1298         0.325449   
     50. A(C   2,C   3,H  10)          112.5254         0.319554   
     51. A(C   2,C   3,O   4)          106.5275         0.361529   
     52. A(O   4,C   3,H  11)          107.1237         0.325748   
     53. A(H  10,C   3,H  11)          108.8728         0.289284   
     54. A(C   2,C   3,H  11)          112.4566         0.319846   
     55. A(C   0,O   4,C   3)          108.3146         0.371320   
     56. A(H  14,C  12,C  16)          107.7138         0.318161   
     57. A(H  13,C  12,H  14)          108.2670         0.288355   
     58. A(H  13,C  12,O  15)          109.2403         0.310809   
     59. A(H  14,C  12,O  15)          110.4630         0.310770   
     60. A(O  15,C  12,C  16)          112.7057         0.343972   
     61. A(H  13,C  12,C  16)          108.3301         0.318202   
     62. A(C   0,O  15,C  12)          115.1731         0.336011   
     63. A(C  12,C  16,C  17)          111.2582         0.357432   
     64. A(C  12,C  16,O  20)          110.4417         0.363162   
     65. A(C  17,C  16,O  20)          104.2570         0.368324   
     66. A(C  12,C  16,H  21)          109.1283         0.319248   
     67. A(C  17,C  16,H  21)          114.5238         0.323583   
     68. A(O  20,C  16,H  21)          107.0326         0.328591   
     69. A(C  16,C  17,C  18)          101.7005         0.358976   
     70. A(C  16,C  17,H  22)          110.1087         0.322794   
     71. A(C  18,C  17,H  22)          110.6444         0.319793   
     72. A(C  16,C  17,O  23)          113.1630         0.348818   
     73. A(C  18,C  17,O  23)          112.7876         0.345483   
     74. A(H  22,C  17,O  23)          108.3420         0.311109   
     75. A(C  17,C  18,C  19)          103.1263         0.355308   
     76. A(C  17,C  18,H  24)          112.8045         0.319943   
     77. A(C  19,C  18,H  24)          112.4263         0.319767   
     78. A(C  17,C  18,H  25)          110.0678         0.319734   
     79. A(C  19,C  18,H  25)          110.6517         0.319558   
     80. A(H  24,C  18,H  25)          107.7555         0.288940   
     81. A(C  18,C  19,O  20)          106.5018         0.361698   
     82. A(C  18,C  19,H  26)          112.5342         0.319584   
     83. A(O  20,C  19,H  26)          109.0741         0.325298   
     84. A(C  18,C  19,H  27)          112.5035         0.320023   
     85. A(O  20,C  19,H  27)          107.1417         0.325747   
     86. A(H  26,C  19,H  27)          108.8767         0.289185   
     87. A(C  16,O  20,C  19)          108.3360         0.371356   
     88. A(C  17,O  23,H  28)          109.7047         0.303185   
     89. D(H   7,C   1,C   0,H   5)     82.1519         0.010890   
     90. D(C   2,C   1,C   0,O  15)     79.0870         0.010890   
     91. D(H   7,C   1,C   0,O  15)    -42.1868         0.010890   
     92. D(H   6,C   1,C   0,O   4)     77.3259         0.010890   
     93. D(H   6,C   1,C   0,O  15)   -163.5727         0.010890   
     94. D(H   6,C   1,C   0,H   5)    -39.2340         0.010890   
     95. D(H   7,C   1,C   0,O   4)   -161.2883         0.010890   
     96. D(C   2,C   1,C   0,O   4)    -40.0145         0.010890 C 
     97. D(C   2,C   1,C   0,H   5)   -156.5744         0.010890   
     98. D(H   9,C   2,C   1,H   6)    160.0776         0.009912   
     99. D(H   8,C   2,C   1,C   0)    156.5479         0.009912   
    100. D(H   8,C   2,C   1,H   6)     39.6446         0.009912   
    101. D(C   3,C   2,C   1,C   0)     35.0270         0.009912 C 
    102. D(H   8,C   2,C   1,H   7)    -81.9752         0.009912   
    103. D(H   9,C   2,C   1,C   0)    -83.0192         0.009912   
    104. D(C   3,C   2,C   1,H   6)    -81.8762         0.009912   
    105. D(H   9,C   2,C   1,H   7)     38.4578         0.009912   
    106. D(C   3,C   2,C   1,H   7)    156.5039         0.009912   
    107. D(H  11,C   3,C   2,H   9)   -143.4628         0.009774   
    108. D(O   4,C   3,C   2,H   8)   -140.0066         0.009774   
    109. D(O   4,C   3,C   2,H   9)     99.4740         0.009774   
    110. D(H  10,C   3,C   2,C   1)   -137.7432         0.009774   
    111. D(H  10,C   3,C   2,H   8)    100.4468         0.009774   
    112. D(H  10,C   3,C   2,H   9)    -20.0726         0.009774   
    113. D(H  11,C   3,C   2,C   1)     98.8666         0.009774   
    114. D(O   4,C   3,C   2,C   1)    -18.1967         0.009774 C 
    115. D(H  11,C   3,C   2,H   8)    -22.9433         0.009774   
    116. D(C   3,O   4,C   0,C   1)     29.5918         0.014035 C 
    117. D(C   3,O   4,C   0,H   5)    151.2016         0.014035   
    118. D(C   3,O   4,C   0,O  15)    -90.0715         0.014035   
    119. D(C   0,O   4,C   3,C   2)     -6.8732         0.012866 C 
    120. D(C   0,O   4,C   3,H  10)    114.8547         0.012866   
    121. D(C   0,O   4,C   3,H  11)   -127.4272         0.012866   
    122. D(C   0,O  15,C  12,C  16)    -45.0000         0.007729 C 
    123. D(C  12,O  15,C   0,O   4)    -60.0000         0.007793 C 
    124. D(C  12,O  15,C   0,H   5)     57.4185         0.007793   
    125. D(C   0,O  15,C  12,H  14)   -165.5422         0.007729   
    126. D(C   0,O  15,C  12,H  13)     75.4723         0.007729   
    127. D(C  12,O  15,C   0,C   1)   -175.3137         0.007793   
    128. D(C  17,C  16,C  12,H  13)     63.7006         0.009442   
    129. D(H  21,C  16,C  12,H  14)    179.4741         0.009442   
    130. D(C  17,C  16,C  12,O  15)   -175.3064         0.009442   
    131. D(O  20,C  16,C  12,H  13)    178.9791         0.009442   
    132. D(O  20,C  16,C  12,H  14)     62.0778         0.009442   
    133. D(O  20,C  16,C  12,O  15)    -60.0279         0.009442 C 
    134. D(C  17,C  16,C  12,H  14)    -53.2007         0.009442   
    135. D(H  21,C  16,C  12,H  13)    -63.6245         0.009442   
    136. D(H  21,C  16,C  12,O  15)     57.3685         0.009442   
    137. D(C  18,C  17,C  16,C  12)     79.0728         0.010998   
    138. D(C  18,C  17,C  16,O  20)    -39.9735         0.010998 C 
    139. D(C  18,C  17,C  16,H  21)   -156.5966         0.010998   
    140. D(H  22,C  17,C  16,C  12)   -163.5888         0.010998   
    141. D(H  22,C  17,C  16,O  20)     77.3648         0.010998   
    142. D(H  22,C  17,C  16,H  21)    -39.2583         0.010998   
    143. D(O  23,C  17,C  16,C  12)    -42.1802         0.010998   
    144. D(O  23,C  17,C  16,O  20)   -161.2266         0.010998   
    145. D(O  23,C  17,C  16,H  21)     82.1503         0.010998   
    146. D(H  24,C  18,C  17,O  23)    -81.9140         0.009890   
    147. D(C  19,C  18,C  17,H  22)    -81.9115         0.009890   
    148. D(C  19,C  18,C  17,O  23)    156.5528         0.009890   
    149. D(H  24,C  18,C  17,C  16)    156.5720         0.009890   
    150. D(C  19,C  18,C  17,C  16)     35.0388         0.009890 C 
    151. D(H  24,C  18,C  17,H  22)     39.6217         0.009890   
    152. D(H  25,C  18,C  17,C  16)    -83.0439         0.009890   
    153. D(H  25,C  18,C  17,H  22)    160.0059         0.009890   
    154. D(H  25,C  18,C  17,O  23)     38.4701         0.009890   
    155. D(H  27,C  19,C  18,H  25)   -143.4557         0.009829   
    156. D(O  20,C  19,C  18,H  24)   -140.0122         0.009829   
    157. D(O  20,C  19,C  18,H  25)     99.4496         0.009829   
    158. D(H  26,C  19,C  18,C  17)   -137.6903         0.009829   
    159. D(H  26,C  19,C  18,H  24)    100.5209         0.009829   
    160. D(H  26,C  19,C  18,H  25)    -20.0173         0.009829   
    161. D(H  27,C  19,C  18,C  17)     98.8713         0.009829   
    162. D(O  20,C  19,C  18,C  17)    -18.2234         0.009829 C 
    163. D(H  27,C  19,C  18,H  24)    -22.9174         0.009829   
    164. D(C  19,O  20,C  16,C  12)    -90.0639         0.014060   
    165. D(C  19,O  20,C  16,C  17)     29.5361         0.014060 C 
    166. D(C  19,O  20,C  16,H  21)    151.2550         0.014060   
    167. D(C  16,O  20,C  19,C  18)     -6.8040         0.012858 C 
    168. D(C  16,O  20,C  19,H  26)    114.8881         0.012858   
    169. D(C  16,O  20,C  19,H  27)   -127.4087         0.012858   
    170. D(H  28,O  23,C  17,C  16)     57.6472         0.007740   
    171. D(H  28,O  23,C  17,C  18)    -57.1235         0.007740   
    172. D(H  28,O  23,C  17,H  22)   -179.9544         0.007740   
    -----------------------------------------------------------------

Number of atoms                         .... 29
Number of degrees of freedom            .... 172

         *************************************************************
         *                GEOMETRY OPTIMIZATION CYCLE   1            *
         *************************************************************
---------------------------------
CARTESIAN COORDINATES (ANGSTROEM)
---------------------------------
  C    -21.047871   26.221909   46.251134
  C    -20.360909   27.557909   45.944021
  C    -20.329038   28.222094   47.340939
  C    -20.110047   27.022222   48.296098
  O    -20.472935   25.807114   47.535227
  H    -20.832781   25.427846   45.533231
  H    -19.343876   27.381910   45.576112
  H    -20.897887   28.156793   45.200911
  H    -19.543080   28.978143   47.433898
  H    -21.289074   28.710076   47.547811
  H    -20.733111   27.082302   49.195049
  H    -19.064062   26.913308   48.597183
  C    -23.361892   25.115888   46.798001
  H    -23.212873   24.940893   47.871000
  H    -24.436896   25.241880   46.616018
  O    -22.585884   26.393885   46.375007
  C    -22.896998   23.848916   46.026891
  C    -23.759026   22.633933   46.383890
  C    -25.022086   22.882034   45.525007
  C    -24.452159   23.535080   44.241999
  O    -23.099112   24.024001   44.584918
  H    -21.825993   23.706856   46.184803
  H    -23.256091   21.710928   46.073799
  O    -24.073911   22.532863   47.901909
  H    -25.579143   21.963070   45.314000
  H    -25.699015   23.572035   46.042099
  H    -25.060149   24.378126   43.894093
  H    -24.338255   22.819120   43.422950
  H    -24.578845   23.445866   48.235999

----------------------------
CARTESIAN COORDINATES (A.U.)
----------------------------
  NO LB      ZA    FRAG     MASS         X           Y           Z
   0 C     6.0000    0    12.011  -39.774712   49.552228   87.401977
   1 C     6.0000    0    12.011  -38.476542   52.076901   86.821617
   2 C     6.0000    0    12.011  -38.416313   53.332028   89.461409
   3 C     6.0000    0    12.011  -38.002481   51.064598   91.266399
   4 O     8.0000    0    15.999  -38.688240   48.768377   89.828561
   5 H     1.0000    0     1.008  -39.368251   48.051665   86.045337
   6 H     1.0000    0     1.008  -36.554628   51.744310   86.126369
   7 H     1.0000    0     1.008  -39.491283   53.208627   85.417344
   8 H     1.0000    0     1.008  -36.931069   54.760754   89.637077
   9 H     1.0000    0     1.008  -40.230520   54.254180   89.852341
  10 H     1.0000    0     1.008  -39.179901   51.178133   92.965169
  11 H     1.0000    0     1.008  -36.025856   50.858782   91.835366
  12 C     6.0000    0    12.011  -44.147578   47.462150   88.435406
  13 H     1.0000    0     1.008  -43.865973   47.131457   90.463079
  14 H     1.0000    0     1.008  -46.179041   47.700241   88.091508
  15 O     8.0000    0    15.999  -42.681135   49.877214   87.636063
  16 C     6.0000    0    12.011  -43.269056   45.067920   86.978219
  17 C     6.0000    0    12.011  -44.898053   42.771934   87.652850
  18 C     6.0000    0    12.011  -47.284891   43.240778   86.029795
  19 C     6.0000    0    12.011  -46.207883   44.474856   83.605261
  20 O     8.0000    0    15.999  -43.650995   45.398783   84.253284
  21 H     1.0000    0     1.008  -41.245150   44.799466   87.276630
  22 H     1.0000    0     1.008  -43.947642   41.027709   87.066862
  23 O     8.0000    0    15.999  -45.493099   42.580940   90.521490
  24 H     1.0000    0     1.008  -48.337576   41.504188   85.631051
  25 H     1.0000    0     1.008  -48.564101   44.544690   87.006958
  26 H     1.0000    0     1.008  -47.356818   46.067982   82.947815
  27 H     1.0000    0     1.008  -45.992636   43.121888   82.057484
  28 H     1.0000    0     1.008  -46.447286   44.306266   91.152829

--------------------------------
INTERNAL COORDINATES (ANGSTROEM)
--------------------------------
 C      0   0   0     0.000000000000     0.00000000     0.00000000
 C      1   0   0     1.533334275362     0.00000000     0.00000000
 C      2   1   0     1.547103422529   101.67907390     0.00000000
 C      3   2   1     1.549188819996   103.12737509    35.02687180
 O      1   2   3     1.466801281701   104.24948604   319.98542309
 H      1   2   3     1.091872245274   114.43876658   203.42640133
 H      2   1   3     1.095759553917   110.06782188   117.34000099
 H      2   1   3     1.095088580892   113.12442239   238.72597460
 H      3   2   1     1.094523183857   112.83161078   156.54780790
 H      3   2   1     1.096628013503   110.07982737   276.98070077
 H      4   3   2     1.095413164062   112.52534669   222.25678475
 H      4   3   2     1.093891219455   112.45670684    98.86663270
 C      1   2   3     2.622411294973   143.57019707    74.85255495
 H     13   1   2     1.097339965553    98.70836432   254.98491210
 H     13   1   2     1.097554098894   141.37568869    29.38869089
 O      1   2   3     1.552547583812   111.30349807    79.08752829
 C     13   1   2     1.554334262635    88.64419368   146.65164670
 C     17  13   1     1.531900127293   111.25857907   162.42730389
 C     18  17  13     1.547434651286   101.70031115    79.07310254
 C     19  18  17     1.548353318852   103.12651797    35.03870452
 O     17  13   1     1.466558215687   110.44155733   277.70639955
 H     17  13   1     1.091864918385   109.12793974    35.10183622
 H     18  17  13     1.095918792612   110.10872218   196.41126758
 O     18  17  13     1.553624793829   113.16307548   317.81992562
 H     19  18  17     1.095139717114   112.80447234   156.57194388
 H     19  18  17     1.096228990677   110.06775480   276.95604237
 H     20  19  18     1.096091693245   112.53423323   222.30967670
 H     20  19  18     1.093806655675   112.50353950    98.87133527
 H     24  18  17     1.095513578191   109.70472420    57.64718067

---------------------------
INTERNAL COORDINATES (A.U.)
---------------------------
 C      0   0   0     0.000000000000     0.00000000     0.00000000
 C      1   0   0     2.897581852189     0.00000000     0.00000000
 C      2   1   0     2.923601769431   101.67907390     0.00000000
 C      3   2   1     2.927542599525   103.12737509    35.02687180
 O      1   2   3     2.771852715300   104.24948604   319.98542309
 H      1   2   3     2.063339516798   114.43876658   203.42640133
 H      2   1   3     2.070685465531   110.06782188   117.34000099
 H      2   1   3     2.069417510270   113.12442239   238.72597460
 H      3   2   1     2.068349064717   112.83161078   156.54780790
 H      3   2   1     2.072326616307   110.07982737   276.98070077
 H      4   3   2     2.070030883569   112.52534669   222.25678475
 H      4   3   2     2.067154825070   112.45670684    98.86663270
 C      1   2   3     4.955639158000   143.57019707    74.85255495
 H     13   1   2     2.073672010702    98.70836432   254.98491210
 H     13   1   2     2.074076664073   141.37568869    29.38869089
 O      1   2   3     2.933889743286   111.30349807    79.08752829
 C     13   1   2     2.937266076950    88.64419368   146.65164670
 C     17  13   1     2.894871705103   111.25857907   162.42730389
 C     18  17  13     2.924227701070   101.70031115    79.07310254
 C     19  18  17     2.925963731178   103.12651797    35.03870452
 O     17  13   1     2.771393387101   110.44155733   277.70639955
 H     17  13   1     2.063325670984   109.12793974    35.10183622
 H     18  17  13     2.070986383054   110.10872218   196.41126758
 O     18  17  13     2.935925375207   113.16307548   317.81992562
 H     19  18  17     2.069514143725   112.80447234   156.57194388
 H     19  18  17     2.071572572444   110.06775480   276.95604237
 H     20  19  18     2.071313117898   112.53423323   222.30967670
 H     20  19  18     2.066995022687   112.50353950    98.87133527
 H     24  18  17     2.070220638772   109.70472420    57.64718067

---------------------
BASIS SET INFORMATION
---------------------
There are 3 groups of distinct atoms

 Group   1 Type C   : 10s4p contracted to 3s2p pattern {631/31}
 Group   2 Type O   : 10s4p contracted to 3s2p pattern {631/31}
 Group   3 Type H   : 4s contracted to 2s pattern {31}

Atom   0C    basis set group =>   1
Atom   1C    basis set group =>   1
Atom   2C    basis set group =>   1
Atom   3C    basis set group =>   1
Atom   4O    basis set group =>   2
Atom   5H    basis set group =>   3
Atom   6H    basis set group =>   3
Atom   7H    basis set group =>   3
Atom   8H    basis set group =>   3
Atom   9H    basis set group =>   3
Atom  10H    basis set group =>   3
Atom  11H    basis set group =>   3
Atom  12C    basis set group =>   1
Atom  13H    basis set group =>   3
Atom  14H    basis set group =>   3
Atom  15O    basis set group =>   2
Atom  16C    basis set group =>   1
Atom  17C    basis set group =>   1
Atom  18C    basis set group =>   1
Atom  19C    basis set group =>   1
Atom  20O    basis set group =>   2
Atom  21H    basis set group =>   3
Atom  22H    basis set group =>   3
Atom  23O    basis set group =>   2
Atom  24H    basis set group =>   3
Atom  25H    basis set group =>   3
Atom  26H    basis set group =>   3
Atom  27H    basis set group =>   3
Atom  28H    basis set group =>   3
------------------------------------------------------------------------------
                           ORCA GTO INTEGRAL CALCULATION
------------------------------------------------------------------------------

                         BASIS SET STATISTICS AND STARTUP INFO

 # of primitive gaussian shells          ...  246
 # of primitive gaussian functions       ...  350
 # of contracted shells                  ...   97
 # of contracted basis functions         ...  149
 Highest angular momentum                ...    1
 Maximum contraction depth               ...    6
 Integral package used                   ... LIBINT
 Integral threshhold            Thresh   ...  2.500e-11
 Primitive cut-off              TCut     ...  2.500e-12


------------------------------ INTEGRAL EVALUATION ----------------------------


 * One electron integrals 
 Pre-screening matrix                    ... done
 Shell pair data                         ... done (   0.004 sec)

-------------------------------------------------------------------------------
                                 ORCA SCF
-------------------------------------------------------------------------------

------------
SCF SETTINGS
------------
Hamiltonian:
 Density Functional     Method          .... DFT(GTOs)
 Exchange Functional    Exchange        .... B88
   X-Alpha parameter    XAlpha          ....  0.666667
   Becke's b parameter  XBeta           ....  0.004200
 Correlation Functional Correlation     .... LYP
 LDA part of GGA corr.  LDAOpt          .... VWN-5
 Gradients option       PostSCFGGA      .... off
 Hybrid DFT is turned on
   Fraction HF Exchange ScalHFX         ....  0.200000
   Scaling of DF-GGA-X  ScalDFX         ....  0.720000
   Scaling of DF-GGA-C  ScalDFC         ....  0.810000
   Scaling of DF-LDA-C  ScalLDAC        ....  1.000000
   Perturbative correction              ....  0.000000
   Density functional embedding theory  .... OFF
   NL short-range parameter             ....  4.800000


General Settings:
 Integral files         IntName         .... project_8053/ensemble_300_315
 Hartree-Fock type      HFTyp           .... RHF
 Total Charge           Charge          ....    0
 Multiplicity           Mult            ....    1
 Number of Electrons    NEL             ....  102
 Basis Dimension        Dim             ....  149
 Nuclear Repulsion      ENuc            ....    866.7533060350 Eh

Convergence Acceleration:
 DIIS                   CNVDIIS         .... on
   Start iteration      DIISMaxIt       ....    12
   Startup error        DIISStart       ....  0.200000
   # of expansion vecs  DIISMaxEq       ....     5
   Bias factor          DIISBfac        ....   1.050
   Max. coefficient     DIISMaxC        ....  10.000
 Newton-Raphson         CNVNR           .... off
 SOSCF                  CNVSOSCF        .... on
   Start iteration      SOSCFMaxIt      ....   150
   Startup grad/error   SOSCFStart      ....  0.003300
 Level Shifting         CNVShift        .... on
   Level shift para.    LevelShift      ....    0.2500
   Turn off err/grad.   ShiftErr        ....    0.0010
 Zerner damping         CNVZerner       .... off
 Static damping         CNVDamp         .... on
   Fraction old density DampFac         ....    0.7000
   Max. Damping (<1)    DampMax         ....    0.9800
   Min. Damping (>=0)   DampMin         ....    0.0000
   Turn off err/grad.   DampErr         ....    0.1000
 Fernandez-Rico         CNVRico         .... off

SCF Procedure:
 Maximum # iterations   MaxIter         ....   125
 SCF integral mode      SCFMode         .... Direct
   Integral package                     .... LIBINT
 Reset frequency        DirectResetFreq ....    20
 Integral Threshold     Thresh          ....  2.500e-11 Eh
 Primitive CutOff       TCut            ....  2.500e-12 Eh

Convergence Tolerance:
 Convergence Check Mode ConvCheckMode   .... Total+1el-Energy
 Convergence forced     ConvForced      .... 0
 Energy Change          TolE            ....  1.000e-08 Eh
 1-El. energy change                    ....  1.000e-05 Eh
 Orbital Gradient       TolG            ....  1.000e-05
 Orbital Rotation angle TolX            ....  1.000e-05
 DIIS Error             TolErr          ....  5.000e-07


Diagonalization of the overlap matrix:
Smallest eigenvalue                        ... 3.825e-03
Time for diagonalization                   ...    0.010 sec
Threshold for overlap eigenvalues          ... 1.000e-08
Number of eigenvalues below threshold      ... 0
Time for construction of square roots      ...    0.008 sec
Total time needed                          ...    0.018 sec

-------------------
DFT GRID GENERATION
-------------------

General Integration Accuracy     IntAcc      ...  4.340
Radial Grid Type                 RadialGrid  ... Gauss-Chebyshev
Angular Grid (max. acc.)         AngularGrid ... Lebedev-110
Angular grid pruning method      GridPruning ... 3 (G Style)
Weight generation scheme         WeightScheme... Becke
Basis function cutoff            BFCut       ...    1.0000e-11
Integration weight cutoff        WCut        ...    1.0000e-14
Grids for H and He will be reduced by one unit

# of grid points (after initial pruning)     ...  34472 (   0.0 sec)
# of grid points (after weights+screening)   ...  31017 (   0.7 sec)
nearest neighbour list constructed           ...    0.0 sec
Grid point re-assignment to atoms done       ...    0.0 sec
Grid point division into batches done        ...    0.0 sec
Reduced shell lists constructed in    0.4 sec

Total number of grid points                  ...    31017
Total number of batches                      ...      498
Average number of points per batch           ...       62
Average number of grid points per atom       ...     1070
Average number of shells per batch           ...    57.88 (59.67%)
Average number of basis functions per batch  ...    94.13 (63.18%)
Average number of large shells per batch     ...    40.78 (70.46%)
Average number of large basis fcns per batch ...    67.52 (71.72%)
Maximum spatial batch extension              ...  25.37, 18.11, 21.29 au
Average spatial batch extension              ...   3.53,  3.40,  3.43 au

Time for grid setup =    1.381 sec

------------------------------
INITIAL GUESS: MODEL POTENTIAL
------------------------------
Loading Hartree-Fock densities                     ... done
Calculating cut-offs                               ... done
Setting up the integral package                    ... done
Initializing the effective Hamiltonian             ... done
Starting the Coulomb interaction                   ... done (   0.5 sec)
Reading the grid                                   ... done
Mapping shells                                     ... done
Starting the XC term evaluation                    ... done (   0.5 sec)
  promolecular density results
     # of electrons  =    102.005930229
     EX              =    -83.668944185
     EC              =     -3.458754469
     EX+EC           =    -87.127698654
Transforming the Hamiltonian                       ... done (   0.0 sec)
Diagonalizing the Hamiltonian                      ... done (   0.0 sec)
Back transforming the eigenvectors                 ... done (   0.0 sec)
Now organizing SCF variables                       ... done
                      ------------------
                      INITIAL GUESS DONE (   2.5 sec)
                      ------------------
--------------
SCF ITERATIONS
--------------
ITER       Energy         Delta-E        Max-DP      RMS-DP      [F,P]     Damp
               ***  Starting incremental Fock matrix formation  ***
  0   -652.5367523194   0.000000000000 0.07796126  0.00299475  0.2398092 0.7000
  1   -652.6750456045  -0.138293285042 0.04544884  0.00205018  0.0967517 0.7000
                               ***Turning on DIIS***
  2   -652.7273051906  -0.052259586173 0.05291908  0.00329894  0.0303561 0.0000
  3   -652.8128381671  -0.085532976416 0.03165137  0.00134068  0.0541121 0.0000
  4   -652.8302263154  -0.017388148310 0.00844436  0.00042736  0.0124830 0.0000
  5   -652.8312048234  -0.000978508017 0.00268768  0.00012893  0.0040413 0.0000
                      *** Initiating the SOSCF procedure ***
                           *** Shutting down DIIS ***
                      *** Re-Reading the Fockian *** 
                      *** Removing any level shift *** 
ITER      Energy       Delta-E        Grad      Rot      Max-DP    RMS-DP
  6   -652.83127532  -0.0000704949  0.000164  0.000164  0.000823  0.000053
               *** Restarting incremental Fock matrix formation ***
  7   -652.83127803  -0.0000027103  0.000144  0.000257  0.001098  0.000034
  8   -652.83127527   0.0000027573  0.000250  0.000186  0.000765  0.000022
  9   -652.83127946  -0.0000041876  0.000024  0.000041  0.000211  0.000007
 10   -652.83127939   0.0000000716  0.000039  0.000026  0.000126  0.000004
 11   -652.83127952  -0.0000001359  0.000006  0.000006  0.000035  0.000001
 12   -652.83127952   0.0000000023  0.000009  0.000004  0.000021  0.000001
                  ***Gradient check signals convergence***
              ***Rediagonalizing the Fockian in SOSCF/NRSCF***

               *****************************************************
               *                     SUCCESS                       *
               *           SCF CONVERGED AFTER  13 CYCLES          *
               *****************************************************

Setting up the final grid:

General Integration Accuracy     IntAcc      ...  4.670
Radial Grid Type                 RadialGrid  ... Gauss-Chebyshev
Angular Grid (max. acc.)         AngularGrid ... Lebedev-302
Angular grid pruning method      GridPruning ... 3 (G Style)
Weight generation scheme         WeightScheme... Becke
Basis function cutoff            BFCut       ...    1.0000e-11
Integration weight cutoff        WCut        ...    1.0000e-14
Grids for H and He will be reduced by one unit

# of grid points (after initial pruning)     ... 135060 (   0.1 sec)
# of grid points (after weights+screening)   ... 119071 (   1.7 sec)
nearest neighbour list constructed           ...    0.0 sec
Grid point re-assignment to atoms done       ...    0.1 sec
Grid point division into batches done        ...    0.5 sec
Reduced shell lists constructed in    1.9 sec

Total number of grid points                  ...   119071
Total number of batches                      ...     1875
Average number of points per batch           ...       63
Average number of grid points per atom       ...     4106
Average number of shells per batch           ...    52.52 (54.14%)
Average number of basis functions per batch  ...    85.68 (57.51%)
Average number of large shells per batch     ...    36.58 (69.66%)
Average number of large basis fcns per batch ...    60.81 (70.97%)
Maximum spatial batch extension              ...  20.28, 17.65, 20.40 au
Average spatial batch extension              ...   2.21,  2.20,  2.24 au

Final grid set up in    3.9 sec
Final integration                            ... done (  13.7 sec)
Change in XC energy                          ...     0.000669142
Integrated number of electrons               ...   102.000138747
Previous integrated no of electrons          ...   102.007688476

----------------
TOTAL SCF ENERGY
----------------

Total Energy       :         -652.83061038 Eh          -17764.42403 eV

Components:
Nuclear Repulsion  :          866.75330604 Eh           23585.55652 eV
Electronic Energy  :        -1519.58391642 Eh          -41349.98056 eV
One Electron Energy:        -2611.47415551 Eh          -71061.82448 eV
Two Electron Energy:         1091.89023910 Eh           29711.84393 eV

Virial components:
Potential Energy   :        -1301.74596704 Eh          -35422.30860 eV
Kinetic Energy     :          648.91535666 Eh           17657.88456 eV
Virial Ratio       :            2.00603354


DFT components:
N(Alpha)           :       51.000069373707 electrons
N(Beta)            :       51.000069373707 electrons
N(Total)           :      102.000138747415 electrons
E(X)               :      -67.589927205880 Eh       
E(C)               :       -4.069756850581 Eh       
E(XC)              :      -71.659684056460 Eh       
DFET-embed. en.    :        0.000000000000 Eh       

---------------
SCF CONVERGENCE
---------------

  Last Energy change         ...   -4.1548e-09  Tolerance :   1.0000e-08
  Last MAX-Density change    ...    1.7501e-06  Tolerance :   1.0000e-07
  Last RMS-Density change    ...    9.0267e-08  Tolerance :   5.0000e-09
  Last Orbital Gradient      ...    2.9938e-07  Tolerance :   1.0000e-05
  Last Orbital Rotation      ...    5.8898e-07  Tolerance :   1.0000e-05

             **** THE GBW FILE WAS UPDATED (project_8053/ensemble_300_315.gbw) ****
             **** DENSITY FILE WAS UPDATED (project_8053/ensemble_300_315.scfp) ****
             **** ENERGY FILE WAS UPDATED (project_8053/ensemble_300_315.en.tmp) ****
             **** THE GBW FILE WAS UPDATED (project_8053/ensemble_300_315.gbw) ****
             **** DENSITY FILE WAS UPDATED (project_8053/ensemble_300_315.scfp) ****
----------------
ORBITAL ENERGIES
----------------

  NO   OCC          E(Eh)            E(eV) 
   0   2.0000     -19.154972      -521.2333 
   1   2.0000     -19.143243      -520.9141 
   2   2.0000     -19.140535      -520.8404 
   3   2.0000     -19.137881      -520.7682 
   4   2.0000     -10.277468      -279.6641 
   5   2.0000     -10.250363      -278.9266 
   6   2.0000     -10.235805      -278.5304 
   7   2.0000     -10.232190      -278.4321 
   8   2.0000     -10.231470      -278.4125 
   9   2.0000     -10.224131      -278.2127 
  10   2.0000     -10.196070      -277.4492 
  11   2.0000     -10.188163      -277.2340 
  12   2.0000     -10.184215      -277.1266 
  13   2.0000      -1.031562       -28.0702 
  14   2.0000      -1.025435       -27.9035 
  15   2.0000      -0.974763       -26.5247 
  16   2.0000      -0.953243       -25.9391 
  17   2.0000      -0.786731       -21.4080 
  18   2.0000      -0.783475       -21.3195 
  19   2.0000      -0.760393       -20.6914 
  20   2.0000      -0.729605       -19.8536 
  21   2.0000      -0.676825       -18.4174 
  22   2.0000      -0.604935       -16.4611 
  23   2.0000      -0.595161       -16.1951 
  24   2.0000      -0.593649       -16.1540 
  25   2.0000      -0.561879       -15.2895 
  26   2.0000      -0.522029       -14.2051 
  27   2.0000      -0.496895       -13.5212 
  28   2.0000      -0.490640       -13.3510 
  29   2.0000      -0.483534       -13.1576 
  30   2.0000      -0.461998       -12.5716 
  31   2.0000      -0.445788       -12.1305 
  32   2.0000      -0.436300       -11.8723 
  33   2.0000      -0.425704       -11.5840 
  34   2.0000      -0.421023       -11.4566 
  35   2.0000      -0.414766       -11.2864 
  36   2.0000      -0.401373       -10.9219 
  37   2.0000      -0.397621       -10.8198 
  38   2.0000      -0.380677       -10.3587 
  39   2.0000      -0.363005        -9.8779 
  40   2.0000      -0.354479        -9.6459 
  41   2.0000      -0.352765        -9.5992 
  42   2.0000      -0.345863        -9.4114 
  43   2.0000      -0.331190        -9.0121 
  44   2.0000      -0.322408        -8.7732 
  45   2.0000      -0.312246        -8.4967 
  46   2.0000      -0.297099        -8.0845 
  47   2.0000      -0.269595        -7.3361 
  48   2.0000      -0.263459        -7.1691 
  49   2.0000      -0.245946        -6.6925 
  50   2.0000      -0.238395        -6.4870 
  51   0.0000       0.022549         0.6136 
  52   0.0000       0.068644         1.8679 
  53   0.0000       0.075794         2.0624 
  54   0.0000       0.088341         2.4039 
  55   0.0000       0.098021         2.6673 
  56   0.0000       0.106434         2.8962 
  57   0.0000       0.116523         3.1708 
  58   0.0000       0.121169         3.2972 
  59   0.0000       0.137278         3.7355 
  60   0.0000       0.142929         3.8893 
  61   0.0000       0.148339         4.0365 
  62   0.0000       0.151595         4.1251 
  63   0.0000       0.154388         4.2011 
  64   0.0000       0.155113         4.2208 
  65   0.0000       0.172570         4.6959 
  66   0.0000       0.175485         4.7752 
  67   0.0000       0.178967         4.8699 
  68   0.0000       0.187215         5.0944 
  69   0.0000       0.194074         5.2810 
  70   0.0000       0.206938         5.6311 
  71   0.0000       0.220890         6.0107 
  72   0.0000       0.225088         6.1250 
  73   0.0000       0.232205         6.3186 
  74   0.0000       0.242104         6.5880 
  75   0.0000       0.256599         6.9824 
  76   0.0000       0.259339         7.0570 
  77   0.0000       0.268576         7.3083 
  78   0.0000       0.289109         7.8671 
  79   0.0000       0.290608         7.9079 
  80   0.0000       0.294754         8.0207 
  81   0.0000       0.533301        14.5119 
  82   0.0000       0.540322        14.7029 
  83   0.0000       0.546433        14.8692 
  84   0.0000       0.549744        14.9593 
  85   0.0000       0.554315        15.0837 
  86   0.0000       0.566704        15.4208 
  87   0.0000       0.571195        15.5430 
  88   0.0000       0.578639        15.7456 
  89   0.0000       0.586528        15.9602 
  90   0.0000       0.600906        16.3515 
  91   0.0000       0.603145        16.4124 
  92   0.0000       0.610302        16.6072 
  93   0.0000       0.631946        17.1961 
  94   0.0000       0.640132        17.4189 
  95   0.0000       0.644139        17.5279 
  96   0.0000       0.664027        18.0691 
  97   0.0000       0.666327        18.1317 
  98   0.0000       0.685951        18.6657 
  99   0.0000       0.700894        19.0723 
 100   0.0000       0.731199        19.8969 
 101   0.0000       0.777309        21.1517 
 102   0.0000       0.798522        21.7289 
 103   0.0000       0.805712        21.9245 
 104   0.0000       0.816322        22.2132 
 105   0.0000       0.823202        22.4005 
 106   0.0000       0.831626        22.6297 
 107   0.0000       0.848656        23.0931 
 108   0.0000       0.864791        23.5322 
 109   0.0000       0.874678        23.8012 
 110   0.0000       0.880055        23.9475 
 111   0.0000       0.889923        24.2160 
 112   0.0000       0.901807        24.5394 
 113   0.0000       0.902953        24.5706 
 114   0.0000       0.915766        24.9193 
 115   0.0000       0.937084        25.4994 
 116   0.0000       0.946337        25.7511 
 117   0.0000       0.948088        25.7988 
 118   0.0000       0.952117        25.9084 
 119   0.0000       0.965382        26.2694 
 120   0.0000       0.976770        26.5792 
 121   0.0000       0.985676        26.8216 
 122   0.0000       1.006636        27.3920 
 123   0.0000       1.022761        27.8307 
 124   0.0000       1.038439        28.2573 
 125   0.0000       1.047399        28.5012 
 126   0.0000       1.089627        29.6503 
 127   0.0000       1.100338        29.9417 
 128   0.0000       1.129658        30.7396 
 129   0.0000       1.169861        31.8335 
 130   0.0000       1.197487        32.5853 
 131   0.0000       1.207264        32.8513 
 132   0.0000       1.255986        34.1771 
 133   0.0000       1.299976        35.3741 
 134   0.0000       1.350648        36.7530 
 135   0.0000       1.360206        37.0131 
 136   0.0000       1.378388        37.5078 
 137   0.0000       1.407663        38.3044 
 138   0.0000       1.444835        39.3160 
 139   0.0000       1.465589        39.8807 
 140   0.0000       1.528103        41.5818 
 141   0.0000       1.552486        42.2453 
 142   0.0000       1.604660        43.6650 
 143   0.0000       1.664831        45.3024 
 144   0.0000       1.699805        46.2540 
 145   0.0000       1.881534        51.1991 
 146   0.0000       1.946447        52.9655 
 147   0.0000       2.043989        55.6198 
 148   0.0000       2.099406        57.1277 

                    ********************************
                    * MULLIKEN POPULATION ANALYSIS *
                    ********************************

-----------------------
MULLIKEN ATOMIC CHARGES
-----------------------
   0 C :    0.278134
   1 C :   -0.275483
   2 C :   -0.301021
   3 C :   -0.000344
   4 O :   -0.518584
   5 H :    0.171022
   6 H :    0.153585
   7 H :    0.164287
   8 H :    0.140079
   9 H :    0.164028
  10 H :    0.145766
  11 H :    0.141604
  12 C :   -0.018809
  13 H :    0.146880
  14 H :    0.134684
  15 O :   -0.516431
  16 C :    0.048741
  17 C :    0.080967
  18 C :   -0.320350
  19 C :   -0.014788
  20 O :   -0.510897
  21 H :    0.179192
  22 H :    0.169074
  23 O :   -0.588835
  24 H :    0.158801
  25 H :    0.144682
  26 H :    0.150908
  27 H :    0.150734
  28 H :    0.342376
Sum of atomic charges:   -0.0000000

--------------------------------
MULLIKEN REDUCED ORBITAL CHARGES
--------------------------------
  0 C s       :     3.235138  s :     3.235138
      pz      :     0.790341  p :     2.486728
      px      :     0.688239
      py      :     1.008148
  1 C s       :     3.314301  s :     3.314301
      pz      :     0.986221  p :     2.961182
      px      :     1.031553
      py      :     0.943408
  2 C s       :     3.315182  s :     3.315182
      pz      :     0.908825  p :     2.985840
      px      :     1.086969
      py      :     0.990046
  3 C s       :     3.259342  s :     3.259342
      pz      :     0.939594  p :     2.741002
      px      :     1.055957
      py      :     0.745451
  4 O s       :     3.941516  s :     3.941516
      pz      :     1.321074  p :     4.577068
      px      :     1.734639
      py      :     1.521355
  5 H s       :     0.828978  s :     0.828978
  6 H s       :     0.846415  s :     0.846415
  7 H s       :     0.835713  s :     0.835713
  8 H s       :     0.859921  s :     0.859921
  9 H s       :     0.835972  s :     0.835972
 10 H s       :     0.854234  s :     0.854234
 11 H s       :     0.858396  s :     0.858396
 12 C s       :     3.284317  s :     3.284317
      pz      :     1.007693  p :     2.734492
      px      :     0.953270
      py      :     0.773529
 13 H s       :     0.853120  s :     0.853120
 14 H s       :     0.865316  s :     0.865316
 15 O s       :     3.952462  s :     3.952462
      pz      :     1.830791  p :     4.563969
      px      :     1.246622
      py      :     1.486555
 16 C s       :     3.277151  s :     3.277151
      pz      :     0.665416  p :     2.674108
      px      :     1.088563
      py      :     0.920129
 17 C s       :     3.292401  s :     3.292401
      pz      :     0.683586  p :     2.626632
      px      :     0.930889
      py      :     1.012156
 18 C s       :     3.326236  s :     3.326236
      pz      :     0.941585  p :     2.994114
      px      :     0.981348
      py      :     1.071182
 19 C s       :     3.263567  s :     3.263567
      pz      :     0.974607  p :     2.751221
      px      :     0.743285
      py      :     1.033329
 20 O s       :     3.945334  s :     3.945334
      pz      :     1.328458  p :     4.565563
      px      :     1.417546
      py      :     1.819560
 21 H s       :     0.820808  s :     0.820808
 22 H s       :     0.830926  s :     0.830926
 23 O s       :     3.954716  s :     3.954716
      pz      :     1.332666  p :     4.634119
      px      :     1.783702
      py      :     1.517751
 24 H s       :     0.841199  s :     0.841199
 25 H s       :     0.855318  s :     0.855318
 26 H s       :     0.849092  s :     0.849092
 27 H s       :     0.849266  s :     0.849266
 28 H s       :     0.657624  s :     0.657624


                     *******************************
                     * LOEWDIN POPULATION ANALYSIS *
                     *******************************

----------------------
LOEWDIN ATOMIC CHARGES
----------------------
   0 C :    0.181433
   1 C :   -0.212178
   2 C :   -0.217281
   3 C :   -0.028510
   4 O :   -0.328348
   5 H :    0.110676
   6 H :    0.119419
   7 H :    0.128714
   8 H :    0.112515
   9 H :    0.119626
  10 H :    0.104399
  11 H :    0.101718
  12 C :   -0.053154
  13 H :    0.106928
  14 H :    0.106303
  15 O :   -0.355506
  16 C :    0.010277
  17 C :    0.044894
  18 C :   -0.236940
  19 C :   -0.032238
  20 O :   -0.321804
  21 H :    0.123039
  22 H :    0.125103
  23 O :   -0.433059
  24 H :    0.123688
  25 H :    0.109219
  26 H :    0.105617
  27 H :    0.106128
  28 H :    0.279324

-------------------------------
LOEWDIN REDUCED ORBITAL CHARGES
-------------------------------
  0 C s       :     2.980701  s :     2.980701
      pz      :     0.916110  p :     2.837866
      px      :     0.830636
      py      :     1.091119
  1 C s       :     2.973801  s :     2.973801
      pz      :     1.078483  p :     3.238377
      px      :     1.106207
      py      :     1.053687
  2 C s       :     2.973030  s :     2.973030
      pz      :     1.032412  p :     3.244251
      px      :     1.133157
      py      :     1.078681
  3 C s       :     2.983542  s :     2.983542
      pz      :     1.038418  p :     3.044967
      px      :     1.118679
      py      :     0.887870
  4 O s       :     3.607833  s :     3.607833
      pz      :     1.384943  p :     4.720515
      px      :     1.767439
      py      :     1.568133
  5 H s       :     0.889324  s :     0.889324
  6 H s       :     0.880581  s :     0.880581
  7 H s       :     0.871286  s :     0.871286
  8 H s       :     0.887485  s :     0.887485
  9 H s       :     0.880374  s :     0.880374
 10 H s       :     0.895601  s :     0.895601
 11 H s       :     0.898282  s :     0.898282
 12 C s       :     3.000227  s :     3.000227
      pz      :     1.097711  p :     3.052927
      px      :     1.046390
      py      :     0.908826
 13 H s       :     0.893072  s :     0.893072
 14 H s       :     0.893697  s :     0.893697
 15 O s       :     3.655802  s :     3.655802
      pz      :     1.856658  p :     4.699705
      px      :     1.317756
      py      :     1.525291
 16 C s       :     2.966237  s :     2.966237
      pz      :     0.839959  p :     3.023486
      px      :     1.125480
      py      :     1.058047
 17 C s       :     2.972156  s :     2.972156
      pz      :     0.823215  p :     2.982949
      px      :     1.055368
      py      :     1.104367
 18 C s       :     2.981598  s :     2.981598
      pz      :     1.057656  p :     3.255342
      px      :     1.079663
      py      :     1.118022
 19 C s       :     2.981533  s :     2.981533
      pz      :     1.079439  p :     3.050706
      px      :     0.876228
      py      :     1.095038
 20 O s       :     3.602319  s :     3.602319
      pz      :     1.398936  p :     4.719485
      px      :     1.477976
      py      :     1.842574
 21 H s       :     0.876961  s :     0.876961
 22 H s       :     0.874897  s :     0.874897
 23 O s       :     3.694309  s :     3.694309
      pz      :     1.387537  p :     4.738750
      px      :     1.801305
      py      :     1.549907
 24 H s       :     0.876312  s :     0.876312
 25 H s       :     0.890781  s :     0.890781
 26 H s       :     0.894383  s :     0.894383
 27 H s       :     0.893872  s :     0.893872
 28 H s       :     0.720676  s :     0.720676


                      *****************************
                      * MAYER POPULATION ANALYSIS *
                      *****************************

  NA   - Mulliken gross atomic population
  ZA   - Total nuclear charge
  QA   - Mulliken gross atomic charge
  VA   - Mayer's total valence
  BVA  - Mayer's bonded valence
  FA   - Mayer's free valence

  ATOM       NA         ZA         QA         VA         BVA        FA
  0 C      5.7219     6.0000     0.2781     3.6427     3.6427    -0.0000
  1 C      6.2755     6.0000    -0.2755     3.7353     3.7353     0.0000
  2 C      6.3010     6.0000    -0.3010     3.7647     3.7647    -0.0000
  3 C      6.0003     6.0000    -0.0003     3.6606     3.6606     0.0000
  4 O      8.5186     8.0000    -0.5186     1.7804     1.7804     0.0000
  5 H      0.8290     1.0000     0.1710     0.9219     0.9219    -0.0000
  6 H      0.8464     1.0000     0.1536     0.9303     0.9303     0.0000
  7 H      0.8357     1.0000     0.1643     0.9372     0.9372    -0.0000
  8 H      0.8599     1.0000     0.1401     0.9365     0.9365    -0.0000
  9 H      0.8360     1.0000     0.1640     0.9328     0.9328    -0.0000
 10 H      0.8542     1.0000     0.1458     0.9269     0.9269    -0.0000
 11 H      0.8584     1.0000     0.1416     0.9286     0.9286    -0.0000
 12 C      6.0188     6.0000    -0.0188     3.6517     3.6517     0.0000
 13 H      0.8531     1.0000     0.1469     0.9376     0.9376     0.0000
 14 H      0.8653     1.0000     0.1347     0.9399     0.9399     0.0000
 15 O      8.5164     8.0000    -0.5164     1.7954     1.7954     0.0000
 16 C      5.9513     6.0000     0.0487     3.5624     3.5624     0.0000
 17 C      5.9190     6.0000     0.0810     3.6340     3.6340    -0.0000
 18 C      6.3203     6.0000    -0.3203     3.7183     3.7183    -0.0000
 19 C      6.0148     6.0000    -0.0148     3.6499     3.6499     0.0000
 20 O      8.5109     8.0000    -0.5109     1.7654     1.7654     0.0000
 21 H      0.8208     1.0000     0.1792     0.9301     0.9301     0.0000
 22 H      0.8309     1.0000     0.1691     0.9286     0.9286    -0.0000
 23 O      8.5888     8.0000    -0.5888     1.7693     1.7693    -0.0000
 24 H      0.8412     1.0000     0.1588     0.9372     0.9372    -0.0000
 25 H      0.8553     1.0000     0.1447     0.9405     0.9405    -0.0000
 26 H      0.8491     1.0000     0.1509     0.9243     0.9243    -0.0000
 27 H      0.8493     1.0000     0.1507     0.9271     0.9271    -0.0000
 28 H      0.6576     1.0000     0.3424     0.8558     0.8558    -0.0000

  Mayer bond orders larger than 0.100000
B(  0-C ,  1-C ) :   0.9451 B(  0-C ,  4-O ) :   0.8827 B(  0-C ,  5-H ) :   0.9078 
B(  0-C , 15-O ) :   0.8562 B(  1-C ,  2-C ) :   0.9561 B(  1-C ,  6-H ) :   0.9367 
B(  1-C ,  7-H ) :   0.9337 B(  2-C ,  3-C ) :   0.9549 B(  2-C ,  8-H ) :   0.9449 
B(  2-C ,  9-H ) :   0.9445 B(  3-C ,  4-O ) :   0.8381 B(  3-C , 10-H ) :   0.9354 
B(  3-C , 11-H ) :   0.9396 B( 12-C , 13-H ) :   0.8975 B( 12-C , 14-H ) :   0.9283 
B( 12-C , 15-O ) :   0.8711 B( 12-C , 16-C ) :   0.8939 B( 16-C , 17-C ) :   0.8741 
B( 16-C , 20-O ) :   0.8543 B( 16-C , 21-H ) :   0.9197 B( 17-C , 18-C ) :   0.9170 
B( 17-C , 22-H ) :   0.9333 B( 17-C , 23-O ) :   0.8912 B( 18-C , 19-C ) :   0.9313 
B( 18-C , 24-H ) :   0.9426 B( 18-C , 25-H ) :   0.9409 B( 19-C , 20-O ) :   0.8452 
B( 19-C , 26-H ) :   0.9306 B( 19-C , 27-H ) :   0.9375 B( 23-O , 28-H ) :   0.8021 


-------
TIMINGS
-------

Total SCF time: 0 days 0 hours 4 min 5 sec 

Total time                  ....     245.356 sec
Sum of individual times     ....     243.250 sec  ( 99.1%)

Fock matrix formation       ....     236.204 sec  ( 96.3%)
  XC integration            ....      26.322 sec  ( 11.1% of F)
    Basis function eval.    ....       4.652 sec  ( 17.7% of XC)
    Density eval.           ....       2.448 sec  (  9.3% of XC)
    XC-Functional eval.     ....       1.100 sec  (  4.2% of XC)
    XC-Potential eval.      ....       2.590 sec  (  9.8% of XC)
Diagonalization             ....       0.079 sec  (  0.0%)
Density matrix formation    ....       0.009 sec  (  0.0%)
Population analysis         ....       0.030 sec  (  0.0%)
Initial guess               ....       1.094 sec  (  0.4%)
Orbital Transformation      ....       0.000 sec  (  0.0%)
Orbital Orthonormalization  ....       0.000 sec  (  0.0%)
DIIS solution               ....       0.220 sec  (  0.1%)
SOSCF solution              ....       0.355 sec  (  0.1%)
Grid generation             ....       5.260 sec  (  2.1%)

-------------------------   --------------------
FINAL SINGLE POINT ENERGY      -652.830610382668
-------------------------   --------------------

------------------------------------------------------------------------------
                         ORCA SCF GRADIENT CALCULATION
------------------------------------------------------------------------------

Gradient of the Kohn-Sham DFT energy:
Kohn-Sham wavefunction type      ... RKS
Hartree-Fock exchange scaling    ...    0.200
Number of operators              ...    1
Number of atoms                  ...   29
Basis set dimensions             ...  149
Integral neglect threshold       ... 2.5e-11
Integral primitive cutoff        ... 2.5e-12

Nuclear repulsion gradient       ... done
One Electron Gradient            ... done
Pre-screening matrix             ... done
Starting the two electron gradient:
Two electron gradient done
Exchange-correlation gradient    ... done

------------------
CARTESIAN GRADIENT
------------------

   1   C   :    0.020353959    0.011808234   -0.011243371
   2   C   :    0.016758130   -0.004936540   -0.004541504
   3   C   :   -0.000144757   -0.000652839   -0.002051135
   4   C   :    0.000177273   -0.004405278   -0.003502489
   5   O   :    0.007398700   -0.004035561    0.013349984
   6   H   :    0.003138410   -0.001119036   -0.001399929
   7   H   :    0.001171273    0.004063991    0.000219438
   8   H   :    0.000449994    0.002148298   -0.001095572
   9   H   :   -0.000869520    0.000681193    0.000022916
  10   H   :   -0.000665590    0.001762011    0.001130998
  11   H   :   -0.000528548    0.000719878    0.001124690
  12   H   :   -0.000365277    0.000936284    0.000482187
  13   C   :   -0.031427841   -0.006186589    0.008846218
  14   H   :   -0.004486430   -0.005066237    0.001466309
  15   H   :   -0.006238140   -0.016184917    0.004049531
  16   O   :   -0.011520599    0.022769603   -0.002456297
  17   C   :   -0.003110662   -0.019161132   -0.005935828
  18   C   :    0.018398586   -0.010515443   -0.029602072
  19   C   :   -0.000251723    0.004250196    0.004991194
  20   C   :    0.003820752    0.000170579    0.000454782
  21   O   :   -0.001789578    0.003068126   -0.002957859
  22   H   :    0.001956134    0.004494485    0.000242584
  23   H   :    0.002454033    0.000853240   -0.011841955
  24   O   :    0.018040492   -0.045308987    0.015011783
  25   H   :   -0.001028303   -0.000795352   -0.001204680
  26   H   :    0.000047757    0.001474997   -0.000925886
  27   H   :   -0.000643131    0.000877376    0.000098503
  28   H   :    0.000077050    0.000258855    0.000268256
  29   H   :   -0.031172442    0.058030567    0.026999205

Difference to translation invariance:
           :    0.0000000001   -0.0000000000    0.0000000000

Norm of the cartesian gradient     ...    0.1145940030
RMS gradient                       ...    0.0122857667
MAX gradient                       ...    0.0580305672

-------
TIMINGS
-------

Total SCF gradient time            ...       51.460 sec

One electron gradient       ....       0.437 sec  (  0.8%)
Prescreening matrices       ....       0.063 sec  (  0.1%)
Two electron gradient       ....      23.647 sec  ( 46.0%)
XC gradient                 ....      16.602 sec  ( 32.3%)
------------------------------------------------------------------------------
                         ORCA GEOMETRY RELAXATION STEP
------------------------------------------------------------------------------

Reading the OPT-File                    .... done
Getting information on internals        .... done
Copying old internal coords+grads       .... done
Making the new internal coordinates     .... (new redundants).... done
Validating the new internal coordinates .... (new redundants).... done
Calculating the B-matrix                .... done
Calculating the G,G- and P matrices     .... done
Transforming gradient to internals      .... done
Projecting the internal gradient        .... done
Number of atoms                         ....  29
Number of internal coordinates          .... 172
Current Energy                          ....  -652.830610383 Eh
Current gradient norm                   ....     0.114594003 Eh/bohr
Maximum allowed component of the step   ....  0.300
Current trust radius                    ....  0.300
Evaluating the initial hessian          ....  (Almloef) done
Projecting the Hessian                  .... done
Forming the augmented Hessian           .... done
Diagonalizing the augmented Hessian     .... done
Last element of RFO vector              ....  0.938236590
Lowest eigenvalues of augmented Hessian:
 -0.040269222  0.007832876  0.032959571  0.033087109  0.036674963
Length of the computed step             ....  0.368770916
Warning: the length of the step is outside the trust region - taking restricted step instead
The input lambda is                     ....    -0.040269
   iter:   1  x=   -0.080163  g=    1.152873 f(x)=     0.045992
   iter:   2  x=   -0.098517  g=    0.648368 f(x)=     0.011901
   iter:   3  x=   -0.100615  g=    0.532832 f(x)=     0.001118
   iter:   4  x=   -0.100637  g=    0.521791 f(x)=     0.000012
   iter:   5  x=   -0.100637  g=    0.521676 f(x)=     0.000000
   iter:   6  x=   -0.100637  g=    0.521676 f(x)=     0.000000
The output lambda is                    ....    -0.100637 (6 iterations)
The final length of the internal step   ....  0.300000000
Converting the step to cartesian space:
 Initial RMS(Int)=    0.0228747855
Transforming coordinates:
 Iter   0:  RMS(Cart)=    0.0675647750 RMS(Int)=    0.0228600196
 Iter   1:  RMS(Cart)=    0.0012342878 RMS(Int)=    0.0005258076
 Iter   2:  RMS(Cart)=    0.0000584711 RMS(Int)=    0.0000274913
 Iter   3:  RMS(Cart)=    0.0000036082 RMS(Int)=    0.0000020717
 Iter   4:  RMS(Cart)=    0.0000002319 RMS(Int)=    0.0000001323
 Iter   5:  RMS(Cart)=    0.0000000176 RMS(Int)=    0.0000000099
Imposing constraints:
 Iter   0:  RMS(Cart)=    0.0001211198 RMS(Int)=    0.0000363282
 Iter   1:  RMS(Cart)=    0.0000593086 RMS(Int)=    0.0000214400
 Iter   2:  RMS(Cart)=    0.0000297047 RMS(Int)=    0.0000152087
 Iter   3:  RMS(Cart)=    0.0000153529 RMS(Int)=    0.0000127299
 Iter   4:  RMS(Cart)=    0.0000083173 RMS(Int)=    0.0000116389
 Iter   5:  RMS(Cart)=    0.0000048535 RMS(Int)=    0.0000110167
 Iter   6:  RMS(Cart)=    0.0000031726 RMS(Int)=    0.0000105577
 Iter   7:  RMS(Cart)=    0.0000023878 RMS(Int)=    0.0000101637
 Iter   8:  RMS(Cart)=    0.0000020332 RMS(Int)=    0.0000098020
 Iter   9:  RMS(Cart)=    0.0000018674 RMS(Int)=    0.0000094605
 Iter  10:  RMS(Cart)=    0.0000017781 RMS(Int)=    0.0000091345
 Iter  11:  RMS(Cart)=    0.0000017176 RMS(Int)=    0.0000088218
 Iter  12:  RMS(Cart)=    0.0000016671 RMS(Int)=    0.0000085212
 Iter  13:  RMS(Cart)=    0.0000016194 RMS(Int)=    0.0000082319
 Iter  14:  RMS(Cart)=    0.0000015721 RMS(Int)=    0.0000079532
 Iter  15:  RMS(Cart)=    0.0000015245 RMS(Int)=    0.0000076849
 Iter  16:  RMS(Cart)=    0.0000014769 RMS(Int)=    0.0000074264
 Iter  17:  RMS(Cart)=    0.0000014296 RMS(Int)=    0.0000071774
 Iter  18:  RMS(Cart)=    0.0000013827 RMS(Int)=    0.0000069374
 Iter  19:  RMS(Cart)=    0.0000013368 RMS(Int)=    0.0000067063
 Iter  20:  RMS(Cart)=    0.0000012918 RMS(Int)=    0.0000064836
 Iter  21:  RMS(Cart)=    0.0000012480 RMS(Int)=    0.0000062691
[...]
  29   2.0000      -0.483335       -13.1522 
  30   2.0000      -0.467219       -12.7137 
  31   2.0000      -0.454294       -12.3620 
  32   2.0000      -0.437576       -11.9071 
  33   2.0000      -0.434305       -11.8180 
  34   2.0000      -0.427756       -11.6398 
  35   2.0000      -0.417434       -11.3590 
  36   2.0000      -0.401657       -10.9296 
  37   2.0000      -0.399173       -10.8620 
  38   2.0000      -0.380391       -10.3510 
  39   2.0000      -0.366729        -9.9792 
  40   2.0000      -0.355537        -9.6747 
  41   2.0000      -0.351188        -9.5563 
  42   2.0000      -0.341465        -9.2917 
  43   2.0000      -0.331240        -9.0135 
  44   2.0000      -0.325173        -8.8484 
  45   2.0000      -0.314191        -8.5496 
  46   2.0000      -0.293272        -7.9803 
  47   2.0000      -0.272472        -7.4143 
  48   2.0000      -0.267309        -7.2739 
  49   2.0000      -0.247667        -6.7394 
  50   2.0000      -0.237334        -6.4582 
  51   0.0000       0.052687         1.4337 
  52   0.0000       0.078838         2.1453 
  53   0.0000       0.090652         2.4668 
  54   0.0000       0.093140         2.5345 
  55   0.0000       0.103324         2.8116 
  56   0.0000       0.119721         3.2578 
  57   0.0000       0.124051         3.3756 
  58   0.0000       0.134028         3.6471 
  59   0.0000       0.140915         3.8345 
  60   0.0000       0.148954         4.0532 
  61   0.0000       0.154724         4.2102 
  62   0.0000       0.157359         4.2820 
  63   0.0000       0.162080         4.4104 
  64   0.0000       0.164334         4.4717 
  65   0.0000       0.178362         4.8535 
  66   0.0000       0.181098         4.9279 
  67   0.0000       0.190955         5.1962 
  68   0.0000       0.193593         5.2679 
  69   0.0000       0.204011         5.5514 
  70   0.0000       0.221978         6.0403 
  71   0.0000       0.227708         6.1962 
  72   0.0000       0.230406         6.2697 
  73   0.0000       0.240986         6.5576 
  74   0.0000       0.256779         6.9873 
  75   0.0000       0.268257         7.2996 
  76   0.0000       0.269875         7.3437 
  77   0.0000       0.281911         7.6712 
  78   0.0000       0.296152         8.0587 
  79   0.0000       0.302455         8.2302 
  80   0.0000       0.303004         8.2452 
  81   0.0000       0.531217        14.4552 
  82   0.0000       0.539866        14.6905 
  83   0.0000       0.549980        14.9657 
  84   0.0000       0.552698        15.0397 
  85   0.0000       0.555614        15.1190 
  86   0.0000       0.570209        15.5162 
  87   0.0000       0.573047        15.5934 
  88   0.0000       0.584347        15.9009 
  89   0.0000       0.589436        16.0394 
  90   0.0000       0.603948        16.4343 
  91   0.0000       0.609027        16.5725 
  92   0.0000       0.621275        16.9058 
  93   0.0000       0.633329        17.2338 
  94   0.0000       0.640319        17.4240 
  95   0.0000       0.650037        17.6884 
  96   0.0000       0.665318        18.1042 
  97   0.0000       0.674268        18.3478 
  98   0.0000       0.687294        18.7022 
  99   0.0000       0.708901        19.2902 
 100   0.0000       0.738871        20.1057 
 101   0.0000       0.782740        21.2994 
 102   0.0000       0.814973        22.1765 
 103   0.0000       0.818981        22.2856 
 104   0.0000       0.822311        22.3762 
 105   0.0000       0.832822        22.6622 
 106   0.0000       0.844387        22.9769 
 107   0.0000       0.853152        23.2155 
 108   0.0000       0.863656        23.5013 
 109   0.0000       0.878353        23.9012 
 110   0.0000       0.883007        24.0278 
 111   0.0000       0.892146        24.2765 
 112   0.0000       0.900410        24.5014 
 113   0.0000       0.906955        24.6795 
 114   0.0000       0.921998        25.0888 
 115   0.0000       0.935467        25.4553 
 116   0.0000       0.948004        25.7965 
 117   0.0000       0.950223        25.8569 
 118   0.0000       0.955788        26.0083 
 119   0.0000       0.970539        26.4097 
 120   0.0000       0.976687        26.5770 
 121   0.0000       0.988433        26.8966 
 122   0.0000       1.007197        27.4072 
 123   0.0000       1.018292        27.7091 
 124   0.0000       1.031661        28.0729 
 125   0.0000       1.052634        28.6436 
 126   0.0000       1.092319        29.7235 
 127   0.0000       1.108074        30.1522 
 128   0.0000       1.127238        30.6737 
 129   0.0000       1.164811        31.6961 
 130   0.0000       1.219093        33.1732 
 131   0.0000       1.226554        33.3762 
 132   0.0000       1.261313        34.3221 
 133   0.0000       1.303565        35.4718 
 134   0.0000       1.345716        36.6188 
 135   0.0000       1.370732        37.2995 
 136   0.0000       1.385983        37.7145 
 137   0.0000       1.416205        38.5369 
 138   0.0000       1.455837        39.6153 
 139   0.0000       1.482546        40.3421 
 140   0.0000       1.561925        42.5021 
 141   0.0000       1.577312        42.9209 
 142   0.0000       1.639902        44.6240 
 143   0.0000       1.702608        46.3303 
 144   0.0000       1.719648        46.7940 
 145   0.0000       1.922888        52.3244 
 146   0.0000       2.000304        54.4311 
 147   0.0000       2.043807        55.6148 
 148   0.0000       2.153891        58.6104 

                    ********************************
                    * MULLIKEN POPULATION ANALYSIS *
                    ********************************

-----------------------
MULLIKEN ATOMIC CHARGES
-----------------------
   0 C :    0.275846
   1 C :   -0.260094
   2 C :   -0.298259
   3 C :   -0.003230
   4 O :   -0.520035
   5 H :    0.167098
   6 H :    0.143959
   7 H :    0.159584
   8 H :    0.138866
   9 H :    0.159886
  10 H :    0.143277
  11 H :    0.142311
  12 C :    0.003036
  13 H :    0.142015
  14 H :    0.137620
  15 O :   -0.522240
  16 C :    0.057186
  17 C :    0.086657
  18 C :   -0.324564
  19 C :   -0.012538
  20 O :   -0.517256
  21 H :    0.179123
  22 H :    0.167162
  23 O :   -0.596593
  24 H :    0.158886
  25 H :    0.135841
  26 H :    0.148116
  27 H :    0.151898
  28 H :    0.356442
Sum of atomic charges:    0.0000000

--------------------------------
MULLIKEN REDUCED ORBITAL CHARGES
--------------------------------
  0 C s       :     3.198015  s :     3.198015
      pz      :     0.816395  p :     2.526139
      px      :     0.684292
      py      :     1.025452
  1 C s       :     3.306234  s :     3.306234
      pz      :     0.973790  p :     2.953860
      px      :     1.046095
      py      :     0.933975
  2 C s       :     3.313412  s :     3.313412
      pz      :     0.915597  p :     2.984847
      px      :     1.080792
      py      :     0.988459
  3 C s       :     3.261455  s :     3.261455
      pz      :     0.929156  p :     2.741775
      px      :     1.062496
      py      :     0.750123
  4 O s       :     3.938186  s :     3.938186
      pz      :     1.318466  p :     4.581849
      px      :     1.736217
      py      :     1.527166
  5 H s       :     0.832902  s :     0.832902
  6 H s       :     0.856041  s :     0.856041
  7 H s       :     0.840416  s :     0.840416
  8 H s       :     0.861134  s :     0.861134
  9 H s       :     0.840114  s :     0.840114
 10 H s       :     0.856723  s :     0.856723
 11 H s       :     0.857689  s :     0.857689
 12 C s       :     3.248422  s :     3.248422
      pz      :     1.016077  p :     2.748541
      px      :     0.941045
      py      :     0.791419
 13 H s       :     0.857985  s :     0.857985
 14 H s       :     0.862380  s :     0.862380
 15 O s       :     3.928590  s :     3.928590
      pz      :     1.813709  p :     4.593650
      px      :     1.249872
      py      :     1.530069
 16 C s       :     3.268522  s :     3.268522
      pz      :     0.659685  p :     2.674291
      px      :     1.079648
      py      :     0.934959
 17 C s       :     3.251776  s :     3.251776
      pz      :     0.681385  p :     2.661568
      px      :     0.936786
      py      :     1.043397
 18 C s       :     3.324976  s :     3.324976
      pz      :     0.944719  p :     2.999588
      px      :     0.985889
      py      :     1.068980
 19 C s       :     3.264210  s :     3.264210
      pz      :     0.971947  p :     2.748328
      px      :     0.734534
      py      :     1.041847
 20 O s       :     3.945142  s :     3.945142
      pz      :     1.328112  p :     4.572114
      px      :     1.413934
      py      :     1.830068
 21 H s       :     0.820877  s :     0.820877
 22 H s       :     0.832838  s :     0.832838
 23 O s       :     3.921035  s :     3.921035
      pz      :     1.352048  p :     4.675557
      px      :     1.700554
      py      :     1.622956
 24 H s       :     0.841114  s :     0.841114
 25 H s       :     0.864159  s :     0.864159
 26 H s       :     0.851884  s :     0.851884
 27 H s       :     0.848102  s :     0.848102
 28 H s       :     0.643558  s :     0.643558


                     *******************************
                     * LOEWDIN POPULATION ANALYSIS *
                     *******************************

----------------------
LOEWDIN ATOMIC CHARGES
----------------------
   0 C :    0.168792
   1 C :   -0.212291
   2 C :   -0.216604
   3 C :   -0.027904
   4 O :   -0.335723
   5 H :    0.105802
   6 H :    0.113357
   7 H :    0.125730
   8 H :    0.112203
   9 H :    0.117952
  10 H :    0.103086
  11 H :    0.102393
  12 C :   -0.050630
  13 H :    0.103507
  14 H :    0.105844
  15 O :   -0.318140
  16 C :    0.003425
  17 C :    0.038908
  18 C :   -0.241953
  19 C :   -0.029933
  20 O :   -0.323957
  21 H :    0.122901
  22 H :    0.119249
  23 O :   -0.403787
  24 H :    0.123275
  25 H :    0.104779
  26 H :    0.104797
  27 H :    0.106881
  28 H :    0.278041

-------------------------------
LOEWDIN REDUCED ORBITAL CHARGES
-------------------------------
  0 C s       :     2.951736  s :     2.951736
      pz      :     0.932479  p :     2.879473
      px      :     0.850765
      py      :     1.096228
  1 C s       :     2.974627  s :     2.974627
      pz      :     1.073489  p :     3.237665
      px      :     1.113670
      py      :     1.050506
  2 C s       :     2.970964  s :     2.970964
      pz      :     1.036505  p :     3.245640
      px      :     1.130921
      py      :     1.078214
  3 C s       :     2.984475  s :     2.984475
      pz      :     1.029144  p :     3.043429
      px      :     1.124566
      py      :     0.889719
  4 O s       :     3.602046  s :     3.602046
      pz      :     1.385768  p :     4.733677
      px      :     1.772581
      py      :     1.575328
  5 H s       :     0.894198  s :     0.894198
  6 H s       :     0.886643  s :     0.886643
  7 H s       :     0.874270  s :     0.874270
  8 H s       :     0.887797  s :     0.887797
  9 H s       :     0.882048  s :     0.882048
 10 H s       :     0.896914  s :     0.896914
 11 H s       :     0.897607  s :     0.897607
 12 C s       :     2.974637  s :     2.974637
      pz      :     1.101649  p :     3.075993
      px      :     1.030225
      py      :     0.944119
 13 H s       :     0.896493  s :     0.896493
 14 H s       :     0.894156  s :     0.894156
 15 O s       :     3.578097  s :     3.578097
      pz      :     1.841736  p :     4.740043
      px      :     1.331189
      py      :     1.567119
 16 C s       :     2.962378  s :     2.962378
      pz      :     0.839820  p :     3.034197
      px      :     1.124570
      py      :     1.069807
 17 C s       :     2.950499  s :     2.950499
      pz      :     0.849666  p :     3.010593
      px      :     1.052096
      py      :     1.108831
 18 C s       :     2.983795  s :     2.983795
      pz      :     1.058028  p :     3.258158
      px      :     1.081560
      py      :     1.118570
 19 C s       :     2.981143  s :     2.981143
      pz      :     1.077109  p :     3.048790
      px      :     0.869381
      py      :     1.102301
 20 O s       :     3.600482  s :     3.600482
      pz      :     1.397045  p :     4.723476
      px      :     1.473106
      py      :     1.853324
 21 H s       :     0.877099  s :     0.877099
 22 H s       :     0.880751  s :     0.880751
 23 O s       :     3.607946  s :     3.607946
      pz      :     1.409573  p :     4.795841
      px      :     1.725483
      py      :     1.660784
 24 H s       :     0.876725  s :     0.876725
 25 H s       :     0.895221  s :     0.895221
 26 H s       :     0.895203  s :     0.895203
 27 H s       :     0.893119  s :     0.893119
 28 H s       :     0.721959  s :     0.721959


                      *****************************
                      * MAYER POPULATION ANALYSIS *
                      *****************************

  NA   - Mulliken gross atomic population
  ZA   - Total nuclear charge
  QA   - Mulliken gross atomic charge
  VA   - Mayer's total valence
  BVA  - Mayer's bonded valence
  FA   - Mayer's free valence

  ATOM       NA         ZA         QA         VA         BVA        FA
  0 C      5.7242     6.0000     0.2758     3.6576     3.6576    -0.0000
  1 C      6.2601     6.0000    -0.2601     3.7345     3.7345    -0.0000
  2 C      6.2983     6.0000    -0.2983     3.7679     3.7679     0.0000
  3 C      6.0032     6.0000    -0.0032     3.6650     3.6650     0.0000
  4 O      8.5200     8.0000    -0.5200     1.7635     1.7635    -0.0000
  5 H      0.8329     1.0000     0.1671     0.9251     0.9251    -0.0000
  6 H      0.8560     1.0000     0.1440     0.9336     0.9336    -0.0000
  7 H      0.8404     1.0000     0.1596     0.9400     0.9400     0.0000
  8 H      0.8611     1.0000     0.1389     0.9371     0.9371     0.0000
  9 H      0.8401     1.0000     0.1599     0.9353     0.9353    -0.0000
 10 H      0.8567     1.0000     0.1433     0.9272     0.9272    -0.0000
 11 H      0.8577     1.0000     0.1423     0.9292     0.9292     0.0000
 12 C      5.9970     6.0000     0.0030     3.6283     3.6283     0.0000
 13 H      0.8580     1.0000     0.1420     0.9388     0.9388    -0.0000
 14 H      0.8624     1.0000     0.1376     0.9397     0.9397    -0.0000
 15 O      8.5222     8.0000    -0.5222     1.7525     1.7525    -0.0000
 16 C      5.9428     6.0000     0.0572     3.5433     3.5433     0.0000
 17 C      5.9133     6.0000     0.0867     3.6508     3.6508    -0.0000
 18 C      6.3246     6.0000    -0.3246     3.7244     3.7244    -0.0000
 19 C      6.0125     6.0000    -0.0125     3.6601     3.6601    -0.0000
 20 O      8.5173     8.0000    -0.5173     1.7631     1.7631     0.0000
 21 H      0.8209     1.0000     0.1791     0.9292     0.9292     0.0000
 22 H      0.8328     1.0000     0.1672     0.9250     0.9250     0.0000
 23 O      8.5966     8.0000    -0.5966     1.7565     1.7565    -0.0000
 24 H      0.8411     1.0000     0.1589     0.9362     0.9362     0.0000
 25 H      0.8642     1.0000     0.1358     0.9410     0.9410     0.0000
 26 H      0.8519     1.0000     0.1481     0.9248     0.9248    -0.0000
 27 H      0.8481     1.0000     0.1519     0.9267     0.9267    -0.0000
 28 H      0.6436     1.0000     0.3564     0.8378     0.8378     0.0000

  Mayer bond orders larger than 0.100000
B(  0-C ,  1-C ) :   0.9491 B(  0-C ,  4-O ) :   0.8865 B(  0-C ,  5-H ) :   0.9105 
B(  0-C , 15-O ) :   0.8637 B(  1-C ,  2-C ) :   0.9549 B(  1-C ,  6-H ) :   0.9412 
B(  1-C ,  7-H ) :   0.9361 B(  2-C ,  3-C ) :   0.9558 B(  2-C ,  8-H ) :   0.9455 
B(  2-C ,  9-H ) :   0.9447 B(  3-C ,  4-O ) :   0.8379 B(  3-C , 10-H ) :   0.9362 
B(  3-C , 11-H ) :   0.9407 B( 12-C , 13-H ) :   0.9024 B( 12-C , 14-H ) :   0.9388 
B( 12-C , 15-O ) :   0.8536 B( 12-C , 16-C ) :   0.8924 B( 16-C , 17-C ) :   0.8681 
B( 16-C , 20-O ) :   0.8527 B( 16-C , 21-H ) :   0.9201 B( 17-C , 18-C ) :   0.9205 
B( 17-C , 22-H ) :   0.9346 B( 17-C , 23-O ) :   0.9028 B( 18-C , 19-C ) :   0.9394 
B( 18-C , 24-H ) :   0.9419 B( 18-C , 25-H ) :   0.9413 B( 19-C , 20-O ) :   0.8450 
B( 19-C , 26-H ) :   0.9313 B( 19-C , 27-H ) :   0.9375 B( 23-O , 28-H ) :   0.7971 


-------
TIMINGS
-------

Total SCF time: 0 days 0 hours 1 min 3 sec 

Total time                  ....      63.917 sec
Sum of individual times     ....      63.235 sec  ( 98.9%)

Fock matrix formation       ....      57.805 sec  ( 90.4%)
  XC integration            ....       5.653 sec  (  9.8% of F)
    Basis function eval.    ....       1.873 sec  ( 33.1% of XC)
    Density eval.           ....       0.966 sec  ( 17.1% of XC)
    XC-Functional eval.     ....       0.447 sec  (  7.9% of XC)
    XC-Potential eval.      ....       1.001 sec  ( 17.7% of XC)
Diagonalization             ....       0.012 sec  (  0.0%)
Density matrix formation    ....       0.003 sec  (  0.0%)
Population analysis         ....       0.014 sec  (  0.0%)
Initial guess               ....       0.008 sec  (  0.0%)
Orbital Transformation      ....       0.000 sec  (  0.0%)
Orbital Orthonormalization  ....       0.005 sec  (  0.0%)
DIIS solution               ....       0.002 sec  (  0.0%)
SOSCF solution              ....       0.046 sec  (  0.1%)
Grid generation             ....       5.345 sec  (  8.4%)

-------------------------   --------------------
FINAL SINGLE POINT ENERGY      -652.861264445032
-------------------------   --------------------

                                *** OPTIMIZATION RUN DONE ***

                            ***************************************
                            *     ORCA property calculations      *
                            ***************************************

                                    ---------------------
                                    Active property flags
                                    ---------------------
   (+) Dipole Moment


------------------------------------------------------------------------------
                       ORCA ELECTRIC PROPERTIES CALCULATION
------------------------------------------------------------------------------

Dipole Moment Calculation                       ... on
Quadrupole Moment Calculation                   ... off
Polarizability Calculation                      ... off
GBWName                                         ... project_8053/ensemble_300_315.gbw
Electron density file                           ... project_8053/ensemble_300_315.scfp
The origin for moment calculation is the CENTER OF MASS  = (-42.377631, 47.329855 87.708085)

-------------
DIPOLE MOMENT
-------------
                                X             Y             Z
Electronic contribution:      0.34479      -2.99445      -0.21927
Nuclear contribution   :     -1.04902       3.45108       0.18215
                        -----------------------------------------
Total Dipole Moment    :     -0.70423       0.45662      -0.03712
                        -----------------------------------------
Magnitude (a.u.)       :      0.84013
Magnitude (Debye)      :      2.13544



--------------------
Rotational spectrum 
--------------------
 
Rotational constants in cm-1:     0.057380     0.013599     0.012072 
Rotational constants in MHz :  1720.213979   407.690458   361.898215 

 Dipole components along the rotational axes: 
x,y,z [a.u.] :    -0.142031    -0.213521     0.800035 
x,y,z [Debye]:    -0.361013    -0.542728     2.033527 

 

Timings for individual modules:

Sum of individual times         ...     1641.289 sec (=  27.355 min)
GTO integral calculation        ...       15.876 sec (=   0.265 min)   1.0 %
SCF iterations                  ...     1260.173 sec (=  21.003 min)  76.8 %
SCF Gradient evaluation         ...      362.795 sec (=   6.047 min)  22.1 %
Geometry relaxation             ...        2.445 sec (=   0.041 min)   0.1 %
                             ****ORCA TERMINATED NORMALLY****
TOTAL RUN TIME: 0 days 0 hours 27 minutes 32 seconds 185 msec
