
                                 *****************
                                 * O   R   C   A *
                                 *****************

           --- An Ab Initio, DFT and Semiempirical electronic structure package ---

                  #######################################################
                  #                        -***-                        #
                  #          Department of theory and spectroscopy      #
                  #               Directorship: Frank Neese             #
                  #        Max Planck Institute fuer Kohlenforschung    #
                  #                Kaiser Wilhelm Platz 1               #
                  #                 D-45470 Muelheim/Ruhr               #
                  #                      Germany                        #
                  #                                                     #
                  #                  All rights reserved                #
                  #                        -***-                        #
                  #######################################################


                         Program Version 4.2.0 -  RELEASE  -


 With contributions from (in alphabetic order):
   Daniel Aravena         : Magnetic Suceptibility
   Michael Atanasov       : Ab Initio Ligand Field Theory (pilot matlab implementation)
   Alexander A. Auer      : GIAO ZORA, VPT2
   Ute Becker             : Parallelization
   Giovanni Bistoni       : ED, misc. LED, open-shell LED, HFLED
   Martin Brehm           : Molecular dynamics
   Dmytro Bykov           : SCF Hessian
   Vijay G. Chilkuri      : MRCI spin determinant printing, contributions to CSF-ICE
   Dipayan Datta          : RHF DLPNO-CCSD density
   Achintya Kumar Dutta   : EOM-CC, STEOM-CC
   Dmitry Ganyushin       : Spin-Orbit,Spin-Spin,Magnetic field MRCI
   Miquel Garcia          : C-PCM Hessian, Gaussian charge scheme
   Yang Guo               : DLPNO-NEVPT2, CIM, IAO-localization
   Andreas Hansen         : Spin unrestricted coupled pair/coupled cluster methods
   Benjamin Helmich-Paris : CASSCF linear response (MC-RPA)
   Lee Huntington         : MR-EOM, pCC
   Robert Izsak           : Overlap fitted RIJCOSX, COSX-SCS-MP3, EOM
   Christian Kollmar      : KDIIS, OOCD, Brueckner-CCSD(T), CCSD density
   Simone Kossmann        : Meta GGA functionals, TD-DFT gradient, OOMP2, MP2 Hessian
   Martin Krupicka        : AUTO-CI
   Lucas Lang             : DCDCAS
   Dagmar Lenk            : GEPOL surface, SMD
   Dimitrios Liakos       : Extrapolation schemes; Compound Job, initial MDCI parallelization
   Dimitrios Manganas     : Further ROCIS development; embedding schemes
   Dimitrios Pantazis     : SARC Basis sets
   Taras Petrenko         : DFT Hessian,TD-DFT gradient, ASA, ECA, R-Raman, ABS, FL, XAS/XES, NRVS
   Peter Pinski           : DLPNO-MP2, DLPNO-MP2 Gradient
   Christoph Reimann      : Effective Core Potentials
   Marius Retegan         : Local ZFS, SOC
   Christoph Riplinger    : Optimizer, TS searches, QM/MM, DLPNO-CCSD(T), (RO)-DLPNO pert. Triples
   Tobias Risthaus        : Range-separated hybrids, TD-DFT gradient, RPA, STAB
   Michael Roemelt        : Original ROCIS implementation
   Masaaki Saitow         : Open-shell DLPNO-CCSD energy and density
   Barbara Sandhoefer     : DKH picture change effects
   Avijit Sen             : IP-ROCIS
   Kantharuban Sivalingam : CASSCF convergence, NEVPT2, FIC-MRCI
   Bernardo de Souza      : ESD, SOC TD-DFT
   Georgi Stoychev        : AutoAux, RI-MP2 NMR
   Willem Van den Heuvel  : Paramagnetic NMR
   Boris Wezisla          : Elementary symmetry handling
   Frank Wennmohs         : Technical directorship


 We gratefully acknowledge several colleagues who have allowed us to
 interface, adapt or use parts of their codes:
   Stefan Grimme, W. Hujo, H. Kruse,             : VdW corrections, initial TS optimization,
                  C. Bannwarth                     DFT functionals, gCP, sTDA/sTD-DF
   Ed Valeev, F. Pavosevic, A. Kumar             : LibInt (2-el integral package), F12 methods
   Garnet Chan, S. Sharma, J. Yang, R. Olivares  : DMRG
   Ulf Ekstrom                                   : XCFun DFT Library
   Mihaly Kallay                                 : mrcc  (arbitrary order and MRCC methods)
   Andreas Klamt, Michael Diedenhofen            : otool_cosmo (COSMO solvation model)
   Jiri Pittner, Ondrej Demel                    : Mk-CCSD
   Frank Weinhold                                : gennbo (NPA and NBO analysis)
   Christopher J. Cramer and Donald G. Truhlar   : smd solvation model
   Lars Goerigk                                  : TD-DFT with DH, B97 family of functionals
   V. Asgeirsson, H. Jonsson                     : NEB implementation
   FAccTs GmbH                                   : IRC, NEB, NEB-TS, Multilevel, MM, QM/MM, CI optimization
   S Lehtola, MJT Oliveira, MAL Marques          : LibXC Library


 Your calculation uses the libint2 library for the computation of 2-el integrals
 For citations please refer to: http://libint.valeyev.net

 Your ORCA version has been built with support for libXC version: 4.2.3
 For citations please refer to: https://tddft.org/programs/libxc/

 This ORCA versions uses:
   CBLAS   interface :  Fast vector & matrix operations
   LAPACKE interface :  Fast linear algebra routines
   SCALAPACK package :  Parallel linear algebra routines


----- Orbital basis set information -----
Your calculation utilizes the basis: 6-31G
   H-He, Li-Ne : W. J. Hehre, R. Ditchfield and J.A. Pople, J. Chem. Phys. 56, 2257 (1972).
                 Note: He and Ne are unpublished basis sets taken from the Gaussian program.
                 Note: Li and B from J. D. Dill and J. A. Pople, J. Chem. Phys. 62, 2921 (1975).
   Na - Ar     : M. M. Francl, W. J. Pietro, W. J. Hehre, J. S. Binkley, M. S. Gordon, 
                 D. J. DeFrees and J. A. Pople, J. Chem. Phys. 77, 3654 (1982).
   K - Zn      : V. A. Rassolov, J. A. Pople, M. A. Ratner, and T. L. Windus, J. Chem. Phys. 109, 1223 (1998).

================================================================================
                                        WARNINGS
                       Please study these warnings very carefully!
================================================================================


WARNING: Geometry Optimization
  ===> : Switching off AutoStart
         For restart on a previous wavefunction, please use MOREAD

INFO   : the flag for use of LIBINT has been found!

================================================================================
                                       INPUT FILE
================================================================================
NAME = project_8051/ensemble_255_195.inp
|  1> # Test redundant internal optimization
|  2> #
|  3> ! RKS B3LYP  Opt TightSCF SmallPrint
|  4> 
|  5> %basis
|  6>         Basis "6-31G"
|  7> end
|  8> 
|  9> %geom
| 10> Constraints
| 11> { D 4  0  15  12  255.0   C } # D for Dihedral angle
| 12> { D 0  15  12  16  195.0   C } # D for Dihedral angle
| 13> { D 0  4  3  2   C } # D for Dihedral angle
| 14> { D 4  3  2  1   C } # D for Dihedral angle
| 15> { D 3  2  1  0   C } # D for Dihedral angle
| 16> { D 2  1  0  4   C } # D for Dihedral angle
| 17> { D 1  0  4  3   C } # D for Dihedral angle
| 18> { D 16  20  19  18   C } # D for Dihedral angle
| 19> { D 20  19  18  17   C } # D for Dihedral angle
| 20> { D 19  18  17  16   C } # D for Dihedral angle
| 21> { D 18  17  16  20   C } # D for Dihedral angle
| 22> { D 17  16  20  19   C } # D for Dihedral angle
| 23> { D 15  12  16  20   C } # D for Dihedral angle
| 24> end
| 25> end
| 26> 
| 27> 
| 28> #%pal 
| 29> #nprocs 8
| 30> #end
| 31> 
| 32> * xyz 0 1
| 33> C  -21.048   26.222   46.251
| 34> C  -20.361   27.558   45.944
| 35> C  -20.329   28.222   47.341
| 36> C  -20.110   27.022   48.296
| 37> O  -20.473   25.807   47.535
| 38> H  -20.833   25.428   45.533
| 39> H  -19.344   27.382   45.576
| 40> H  -20.898   28.157   45.201
| 41> H  -19.543   28.978   47.434
| 42> H  -21.289   28.710   47.548
| 43> H  -20.733   27.082   49.195
| 44> H  -19.064   26.913   48.597
| 45> C  -23.431   25.260   45.734
| 46> H  -23.019   25.014   44.747
| 47> H  -23.395   24.355   46.355
| 48> O  -22.586   26.394   46.375
| 49> C  -24.924   25.651   45.555
| 50> C  -25.082   26.807   44.561
| 51> C  -24.952   26.074   43.204
| 52> C  -25.628   24.706   43.478
| 53> O  -25.674   24.547   44.947
| 54> H  -25.366   25.835   46.536
| 55> H  -26.076   27.258   44.663
| 56> O  -24.017   27.922   44.748
| 57> H  -25.427   26.617   42.381
| 58> H  -23.894   25.938   42.950
| 59> H  -25.071   23.869   43.043
| 60> H  -26.659   24.671   43.116
| 61> H  -23.014   27.493   44.649
| 62> *
| 63> 
| 64>                          ****END OF INPUT****
================================================================================

                       *****************************
                       * Geometry Optimization Run *
                       *****************************

Geometry optimization settings:
Update method            Update   .... BFGS
Choice of coordinates    CoordSys .... Z-matrix Internals
Initial Hessian          InHess   .... Almoef's Model

Convergence Tolerances:
Energy Change            TolE     ....  5.0000e-06 Eh
Max. Gradient            TolMAXG  ....  3.0000e-04 Eh/bohr
RMS Gradient             TolRMSG  ....  1.0000e-04 Eh/bohr
Max. Displacement        TolMAXD  ....  4.0000e-03 bohr
RMS Displacement         TolRMSD  ....  2.0000e-03 bohr
Strict Convergence                ....  False
------------------------------------------------------------------------------
                        ORCA OPTIMIZATION COORDINATE SETUP
------------------------------------------------------------------------------

The optimization will be done in new redundant internal coordinates
Making redundant internal coordinates   ...  (new redundants) done
Evaluating the initial hessian          ...  (Almloef) done
Evaluating the coordinates              ...  done
Calculating the B-matrix                .... done
Calculating the G-matrix                .... done
Diagonalizing the G-matrix              .... done
Imposing constraints:
 Iter   0:  RMS(Cart)=    0.0001271490 RMS(Int)=    0.0000440797
 Iter   1:  RMS(Cart)=    0.0000624005 RMS(Int)=    0.0000239164
 Iter   2:  RMS(Cart)=    0.0000323894 RMS(Int)=    0.0000142516
 Iter   3:  RMS(Cart)=    0.0000180244 RMS(Int)=    0.0000093004
 Iter   4:  RMS(Cart)=    0.0000107772 RMS(Int)=    0.0000065617
 Iter   5:  RMS(Cart)=    0.0000068617 RMS(Int)=    0.0000049608
 Iter   6:  RMS(Cart)=    0.0000045948 RMS(Int)=    0.0000040038
 Iter   7:  RMS(Cart)=    0.0000032070 RMS(Int)=    0.0000034288
 Iter   8:  RMS(Cart)=    0.0000023238 RMS(Int)=    0.0000030790
 Iter   9:  RMS(Cart)=    0.0000017477 RMS(Int)=    0.0000028574
 Iter  10:  RMS(Cart)=    0.0000013660 RMS(Int)=    0.0000027067
 Iter  11:  RMS(Cart)=    0.0000011102 RMS(Int)=    0.0000025943
 Iter  12:  RMS(Cart)=    0.0000009366 RMS(Int)=    0.0000025029
 Iter  13:  RMS(Cart)=    0.0000008169 RMS(Int)=    0.0000024233
 Iter  14:  RMS(Cart)=    0.0000007324 RMS(Int)=    0.0000023507
 Iter  15:  RMS(Cart)=    0.0000006710 RMS(Int)=    0.0000022826
 Iter  16:  RMS(Cart)=    0.0000006247 RMS(Int)=    0.0000022178
 Iter  17:  RMS(Cart)=    0.0000005886 RMS(Int)=    0.0000021557
 Iter  18:  RMS(Cart)=    0.0000005593 RMS(Int)=    0.0000020957
 Iter  19:  RMS(Cart)=    0.0000005347 RMS(Int)=    0.0000020378
 Iter  20:  RMS(Cart)=    0.0000005134 RMS(Int)=    0.0000019817
 Iter  21:  RMS(Cart)=    0.0000004945 RMS(Int)=    0.0000019274
 Iter  22:  RMS(Cart)=    0.0000004774 RMS(Int)=    0.0000018748
 Iter  23:  RMS(Cart)=    0.0000004616 RMS(Int)=    0.0000018238
 Iter  24:  RMS(Cart)=    0.0000004469 RMS(Int)=    0.0000017743
 Iter  25:  RMS(Cart)=    0.0000004330 RMS(Int)=    0.0000017264
 Iter  26:  RMS(Cart)=    0.0000004198 RMS(Int)=    0.0000016799
 Iter  27:  RMS(Cart)=    0.0000004072 RMS(Int)=    0.0000016349
 Iter  28:  RMS(Cart)=    0.0000003952 RMS(Int)=    0.0000015912
 Iter  29:  RMS(Cart)=    0.0000003835 RMS(Int)=    0.0000015488
 Iter  30:  RMS(Cart)=    0.0000003724 RMS(Int)=    0.0000015077
 Iter  31:  RMS(Cart)=    0.0000003616 RMS(Int)=    0.0000014678
 Iter  32:  RMS(Cart)=    0.0000003511 RMS(Int)=    0.0000014292
 Iter  33:  RMS(Cart)=    0.0000003410 RMS(Int)=    0.0000013916
 Iter  34:  RMS(Cart)=    0.0000003313 RMS(Int)=    0.0000013552
 Iter  35:  RMS(Cart)=    0.0000003218 RMS(Int)=    0.0000013199
 Iter  36:  RMS(Cart)=    0.0000003127 RMS(Int)=    0.0000012856
 Iter  37:  RMS(Cart)=    0.0000003038 RMS(Int)=    0.0000012524
 Iter  38:  RMS(Cart)=    0.0000002952 RMS(Int)=    0.0000012201
 Iter  39:  RMS(Cart)=    0.0000002869 RMS(Int)=    0.0000011888
 Iter  40:  RMS(Cart)=    0.0000002788 RMS(Int)=    0.0000011584
 Iter  41:  RMS(Cart)=    0.0000002710 RMS(Int)=    0.0000011288
 Iter  42:  RMS(Cart)=    0.0000002634 RMS(Int)=    0.0000011002
 Iter  43:  RMS(Cart)=    0.0000002560 RMS(Int)=    0.0000010724
 Iter  44:  RMS(Cart)=    0.0000002489 RMS(Int)=    0.0000010453
 Iter  45:  RMS(Cart)=    0.0000002420 RMS(Int)=    0.0000010191
 Iter  46:  RMS(Cart)=    0.0000002352 RMS(Int)=    0.0000009936
 Iter  47:  RMS(Cart)=    0.0000002287 RMS(Int)=    0.0000009689
 Iter  48:  RMS(Cart)=    0.0000002224 RMS(Int)=    0.0000009449
 Iter  49:  RMS(Cart)=    0.0000002163 RMS(Int)=    0.0000009215
 Iter  50:  RMS(Cart)=    0.0000002103 RMS(Int)=    0.0000008989
 Iter  51:  RMS(Cart)=    0.0000002046 RMS(Int)=    0.0000008768
 Iter  52:  RMS(Cart)=    0.0000001990 RMS(Int)=    0.0000008554
 Iter  53:  RMS(Cart)=    0.0000001936 RMS(Int)=    0.0000008347
 Iter  54:  RMS(Cart)=    0.0000001883 RMS(Int)=    0.0000008145
 Iter  55:  RMS(Cart)=    0.0000001832 RMS(Int)=    0.0000007948
 Iter  56:  RMS(Cart)=    0.0000001782 RMS(Int)=    0.0000007758
 Iter  57:  RMS(Cart)=    0.0000001734 RMS(Int)=    0.0000007572
 Iter  58:  RMS(Cart)=    0.0000001687 RMS(Int)=    0.0000007392
 Iter  59:  RMS(Cart)=    0.0000001642 RMS(Int)=    0.0000007217
 Iter  60:  RMS(Cart)=    0.0000001598 RMS(Int)=    0.0000007047
 Iter  61:  RMS(Cart)=    0.0000001555 RMS(Int)=    0.0000006881
 Iter  62:  RMS(Cart)=    0.0000001513 RMS(Int)=    0.0000006720
 Iter  63:  RMS(Cart)=    0.0000001473 RMS(Int)=    0.0000006564
 Iter  64:  RMS(Cart)=    0.0000001434 RMS(Int)=    0.0000006412
 Iter  65:  RMS(Cart)=    0.0000001396 RMS(Int)=    0.0000006264
 Iter  66:  RMS(Cart)=    0.0000001359 RMS(Int)=    0.0000006120
 Iter  67:  RMS(Cart)=    0.0000001323 RMS(Int)=    0.0000005980
 Iter  68:  RMS(Cart)=    0.0000001288 RMS(Int)=    0.0000005844
 Iter  69:  RMS(Cart)=    0.0000001254 RMS(Int)=    0.0000005712
 Iter  70:  RMS(Cart)=    0.0000001222 RMS(Int)=    0.0000005583
 Iter  71:  RMS(Cart)=    0.0000001190 RMS(Int)=    0.0000005458
 Iter  72:  RMS(Cart)=    0.0000001159 RMS(Int)=    0.0000005336
 Iter  73:  RMS(Cart)=    0.0000001129 RMS(Int)=    0.0000005217
 Iter  74:  RMS(Cart)=    0.0000001099 RMS(Int)=    0.0000005102
 Iter  75:  RMS(Cart)=    0.0000001071 RMS(Int)=    0.0000004990
 Iter  76:  RMS(Cart)=    0.0000001043 RMS(Int)=    0.0000004880
 Iter  77:  RMS(Cart)=    0.0000001016 RMS(Int)=    0.0000004774
 Iter  78:  RMS(Cart)=    0.0000000990 RMS(Int)=    0.0000004671
 Iter  79:  RMS(Cart)=    0.0000000965 RMS(Int)=    0.0000004570
 Iter  80:  RMS(Cart)=    0.0000000940 RMS(Int)=    0.0000004472
 Iter  81:  RMS(Cart)=    0.0000000916 RMS(Int)=    0.0000004376
 Iter  82:  RMS(Cart)=    0.0000000893 RMS(Int)=    0.0000004283
 Iter  83:  RMS(Cart)=    0.0000000870 RMS(Int)=    0.0000004193
 Iter  84:  RMS(Cart)=    0.0000000848 RMS(Int)=    0.0000004104
 Iter  85:  RMS(Cart)=    0.0000000827 RMS(Int)=    0.0000004018
 Iter  86:  RMS(Cart)=    0.0000000806 RMS(Int)=    0.0000003935
 Iter  87:  RMS(Cart)=    0.0000000786 RMS(Int)=    0.0000003853
 Iter  88:  RMS(Cart)=    0.0000000766 RMS(Int)=    0.0000003774
 Iter  89:  RMS(Cart)=    0.0000000747 RMS(Int)=    0.0000003697
 Iter  90:  RMS(Cart)=    0.0000000729 RMS(Int)=    0.0000003621
 Iter  91:  RMS(Cart)=    0.0000000711 RMS(Int)=    0.0000003548
 Iter  92:  RMS(Cart)=    0.0000000693 RMS(Int)=    0.0000003476
 Iter  93:  RMS(Cart)=    0.0000000676 RMS(Int)=    0.0000003407
 Iter  94:  RMS(Cart)=    0.0000000659 RMS(Int)=    0.0000003339
 Iter  95:  RMS(Cart)=    0.0000000643 RMS(Int)=    0.0000003272
 Iter  96:  RMS(Cart)=    0.0000000627 RMS(Int)=    0.0000003208
 Iter  97:  RMS(Cart)=    0.0000000612 RMS(Int)=    0.0000003145
 Iter  98:  RMS(Cart)=    0.0000000597 RMS(Int)=    0.0000003083
 Iter  99:  RMS(Cart)=    0.0000000583 RMS(Int)=    0.0000003024
 RMS(Cart) too big - taking linear step, building new B-matrix and trying again
Imposing constraints:
 Iter   0:  RMS(Cart)=    0.0000623995 RMS(Int)=    0.0000239164
 Iter   1:  RMS(Cart)=    0.0000323891 RMS(Int)=    0.0000142516
 Iter   2:  RMS(Cart)=    0.0000180244 RMS(Int)=    0.0000093005
 Iter   3:  RMS(Cart)=    0.0000107773 RMS(Int)=    0.0000065618
 Iter   4:  RMS(Cart)=    0.0000068618 RMS(Int)=    0.0000049610
 Iter   5:  RMS(Cart)=    0.0000045949 RMS(Int)=    0.0000040040
 Iter   6:  RMS(Cart)=    0.0000032071 RMS(Int)=    0.0000034290
 Iter   7:  RMS(Cart)=    0.0000023239 RMS(Int)=    0.0000030792
 Iter   8:  RMS(Cart)=    0.0000017478 RMS(Int)=    0.0000028577
 Iter   9:  RMS(Cart)=    0.0000013661 RMS(Int)=    0.0000027070
 Iter  10:  RMS(Cart)=    0.0000011103 RMS(Int)=    0.0000025946
 Iter  11:  RMS(Cart)=    0.0000009367 RMS(Int)=    0.0000025032
 Iter  12:  RMS(Cart)=    0.0000008170 RMS(Int)=    0.0000024236
 Iter  13:  RMS(Cart)=    0.0000007325 RMS(Int)=    0.0000023509
 Iter  14:  RMS(Cart)=    0.0000006711 RMS(Int)=    0.0000022829
 Iter  15:  RMS(Cart)=    0.0000006248 RMS(Int)=    0.0000022181
 Iter  16:  RMS(Cart)=    0.0000005887 RMS(Int)=    0.0000021559
 Iter  17:  RMS(Cart)=    0.0000005594 RMS(Int)=    0.0000020960
 Iter  18:  RMS(Cart)=    0.0000005348 RMS(Int)=    0.0000020381
 Iter  19:  RMS(Cart)=    0.0000005135 RMS(Int)=    0.0000019820
 Iter  20:  RMS(Cart)=    0.0000004946 RMS(Int)=    0.0000019277
 Iter  21:  RMS(Cart)=    0.0000004775 RMS(Int)=    0.0000018750
 Iter  22:  RMS(Cart)=    0.0000004617 RMS(Int)=    0.0000018240
 Iter  23:  RMS(Cart)=    0.0000004470 RMS(Int)=    0.0000017746
 Iter  24:  RMS(Cart)=    0.0000004331 RMS(Int)=    0.0000017267
 Iter  25:  RMS(Cart)=    0.0000004199 RMS(Int)=    0.0000016802
 Iter  26:  RMS(Cart)=    0.0000004073 RMS(Int)=    0.0000016351
 Iter  27:  RMS(Cart)=    0.0000003952 RMS(Int)=    0.0000015914
 Iter  28:  RMS(Cart)=    0.0000003836 RMS(Int)=    0.0000015490
 Iter  29:  RMS(Cart)=    0.0000003724 RMS(Int)=    0.0000015079
 Iter  30:  RMS(Cart)=    0.0000003616 RMS(Int)=    0.0000014681
 Iter  31:  RMS(Cart)=    0.0000003512 RMS(Int)=    0.0000014294
 Iter  32:  RMS(Cart)=    0.0000003411 RMS(Int)=    0.0000013919
 Iter  33:  RMS(Cart)=    0.0000003313 RMS(Int)=    0.0000013555
 Iter  34:  RMS(Cart)=    0.0000003219 RMS(Int)=    0.0000013201
 Iter  35:  RMS(Cart)=    0.0000003127 RMS(Int)=    0.0000012859
 Iter  36:  RMS(Cart)=    0.0000003038 RMS(Int)=    0.0000012526
 Iter  37:  RMS(Cart)=    0.0000002952 RMS(Int)=    0.0000012203
 Iter  38:  RMS(Cart)=    0.0000002869 RMS(Int)=    0.0000011890
 Iter  39:  RMS(Cart)=    0.0000002788 RMS(Int)=    0.0000011586
 Iter  40:  RMS(Cart)=    0.0000002710 RMS(Int)=    0.0000011290
 Iter  41:  RMS(Cart)=    0.0000002634 RMS(Int)=    0.0000011004
 Iter  42:  RMS(Cart)=    0.0000002561 RMS(Int)=    0.0000010726
 Iter  43:  RMS(Cart)=    0.0000002489 RMS(Int)=    0.0000010455
 Iter  44:  RMS(Cart)=    0.0000002420 RMS(Int)=    0.0000010193
 Iter  45:  RMS(Cart)=    0.0000002353 RMS(Int)=    0.0000009938
CONVERGED
Small eigenvalue found = 6.812e-03
Small eigenvalue found = 1.376e-02
Small eigenvalue found = 1.806e-02
The first mode is                       ....   91
The number of degrees of freedom        ....   81
Storing new coordinates                 .... done

    -----------------------------------------------------------------
                    Redundant Internal Coordinates


    -----------------------------------------------------------------
         Definition                    Initial Value    Approx d2E/dq
    -----------------------------------------------------------------
      1. B(C   1,C   0)                  1.5333         0.369027   
      2. B(C   2,C   1)                  1.5471         0.350825   
      3. B(C   3,C   2)                  1.5492         0.348147   
      4. B(O   4,C   0)                  1.4668         0.422031   
      5. B(O   4,C   3)                  1.4789         0.403699   
      6. B(H   5,C   0)                  1.0919         0.357632   
      7. B(H   6,C   1)                  1.0958         0.352561   
      8. B(H   7,C   1)                  1.0951         0.353431   
      9. B(H   8,C   2)                  1.0945         0.354166   
     10. B(H   9,C   2)                  1.0966         0.351438   
     11. B(H  10,C   3)                  1.0954         0.353010   
     12. B(H  11,C   3)                  1.0939         0.354989   
     13. B(H  13,C  12)                  1.0975         0.350359   
     14. B(H  14,C  12)                  1.0982         0.349462   
     15. B(O  15,C   0)                  1.5525         0.307993   
     16. B(O  15,C  12)                  1.5527         0.307826   
     17. B(C  16,C  12)                  1.5537         0.342430   
     18. B(C  17,C  16)                  1.5328         0.369814   
     19. B(C  18,C  17)                  1.5478         0.349947   
     20. B(C  19,C  18)                  1.5503         0.346710   
     21. B(O  20,C  16)                  1.4666         0.422309   
     22. B(O  20,C  19)                  1.4783         0.404581   
     23. B(H  21,C  16)                  1.0916         0.357995   
     24. B(H  22,C  17)                  1.0963         0.351881   
     25. B(O  23,C  17)                  1.5532         0.307260   
     26. B(H  24,C  18)                  1.0944         0.354272   
     27. B(H  25,C  18)                  1.0965         0.351566   
     28. B(H  26,C  19)                  1.0955         0.352943   
     29. B(H  27,C  19)                  1.0933         0.355806   
     30. B(H  28,O  23)                  1.0954         0.316214   
     31. A(O   4,C   0,H   5)          107.0215         0.328541   
     32. A(C   1,C   0,O  15)          111.3020         0.348740   
     33. A(C   1,C   0,O   4)          104.2485         0.367935   
     34. A(O   4,C   0,O  15)          110.4735         0.354548   
     35. A(C   1,C   0,H   5)          114.4377         0.323302   
     36. A(H   5,C   0,O  15)          109.1577         0.312058   
     37. A(C   0,C   1,C   2)          101.6797         0.358729   
     38. A(C   2,C   1,H   7)          112.8319         0.320016   
     39. A(C   2,C   1,H   6)          110.6708         0.319888   
     40. A(C   0,C   1,H   6)          110.0677         0.322546   
     41. A(H   6,C   1,H   7)          108.3681         0.289027   
     42. A(C   0,C   1,H   7)          113.1243         0.322677   
     43. A(C   1,C   2,H   8)          112.8318         0.320125   
     44. A(C   1,C   2,C   3)          103.1267         0.355196   
     45. A(C   1,C   2,H   9)          110.0800         0.319721   
     46. A(C   3,C   2,H   9)          110.6152         0.319321   
     47. A(C   3,C   2,H   8)          112.4038         0.319725   
     48. A(H   8,C   2,H   9)          107.7728         0.288977   
     49. A(O   4,C   3,H  10)          109.1298         0.325449   
     50. A(C   2,C   3,H  10)          112.5253         0.319554   
     51. A(C   2,C   3,O   4)          106.5276         0.361529   
     52. A(O   4,C   3,H  11)          107.1237         0.325748   
     53. A(H  10,C   3,H  11)          108.8728         0.289284   
     54. A(C   2,C   3,H  11)          112.4566         0.319846   
     55. A(C   0,O   4,C   3)          108.3147         0.371320   
     56. A(H  14,C  12,C  16)          107.6937         0.318167   
     57. A(H  13,C  12,H  14)          108.1520         0.288234   
     58. A(H  13,C  12,O  15)          109.3086         0.310995   
     59. A(H  14,C  12,O  15)          110.5248         0.310867   
     60. A(O  15,C  12,C  16)          112.7505         0.344349   
     61. A(H  13,C  12,C  16)          108.2798         0.318300   
     62. A(C   0,O  15,C  12)          115.1653         0.336245   
     63. A(C  12,C  16,C  17)          111.3189         0.357384   
     64. A(C  12,C  16,O  20)          110.4708         0.363293   
     65. A(C  17,C  16,O  20)          104.2502         0.368111   
     66. A(C  12,C  16,H  21)          109.1466         0.319422   
     67. A(C  17,C  16,H  21)          114.4519         0.323469   
     68. A(O  20,C  16,H  21)          107.0011         0.328632   
     69. A(C  16,C  17,C  18)          101.6974         0.358706   
     70. A(C  16,C  17,H  22)          110.0838         0.322557   
     71. A(C  18,C  17,H  22)          110.6436         0.319656   
     72. A(C  16,C  17,O  23)          113.1200         0.348726   
     73. A(C  18,C  17,O  23)          112.8259         0.345500   
     74. A(H  22,C  17,O  23)          108.3717         0.311121   
     75. A(C  17,C  18,C  19)          103.0797         0.354796   
     76. A(C  17,C  18,H  24)          112.8223         0.320010   
     77. A(C  19,C  18,H  24)          112.4239         0.319524   
     78. A(C  17,C  18,H  25)          110.0516         0.319609   
     79. A(C  19,C  18,H  25)          110.6230         0.319125   
     80. A(H  24,C  18,H  25)          107.8248         0.289007   
     81. A(C  18,C  19,O  20)          106.5054         0.361409   
     82. A(C  18,C  19,H  26)          112.4772         0.319328   
     83. A(O  20,C  19,H  26)          109.1618         0.325555   
     84. A(C  18,C  19,H  27)          112.3915         0.319750   
     85. A(O  20,C  19,H  27)          107.2323         0.325988   
     86. A(H  26,C  19,H  27)          108.8781         0.289380   
     87. A(C  16,O  20,C  19)          108.3658         0.371502   
     88. A(C  17,O  23,H  28)          109.6226         0.303286   
     89. D(H   7,C   1,C   0,H   5)     82.1518         0.010890   
     90. D(C   2,C   1,C   0,O  15)     79.0868         0.010890   
     91. D(H   7,C   1,C   0,O  15)    -42.1868         0.010890   
     92. D(H   6,C   1,C   0,O   4)     77.3259         0.010890   
     93. D(H   6,C   1,C   0,O  15)   -163.5727         0.010890   
     94. D(H   6,C   1,C   0,H   5)    -39.2341         0.010890   
     95. D(H   7,C   1,C   0,O   4)   -161.2882         0.010890   
     96. D(C   2,C   1,C   0,O   4)    -40.0145         0.010890 C 
     97. D(C   2,C   1,C   0,H   5)   -156.5746         0.010890   
     98. D(H   9,C   2,C   1,H   6)    160.0776         0.009912   
     99. D(H   8,C   2,C   1,C   0)    156.5479         0.009912   
    100. D(H   8,C   2,C   1,H   6)     39.6446         0.009912   
    101. D(C   3,C   2,C   1,C   0)     35.0270         0.009912 C 
    102. D(H   8,C   2,C   1,H   7)    -81.9752         0.009912   
    103. D(H   9,C   2,C   1,C   0)    -83.0191         0.009912   
    104. D(C   3,C   2,C   1,H   6)    -81.8763         0.009912   
    105. D(H   9,C   2,C   1,H   7)     38.4578         0.009912   
    106. D(C   3,C   2,C   1,H   7)    156.5039         0.009912   
    107. D(H  11,C   3,C   2,H   9)   -143.4628         0.009774   
    108. D(O   4,C   3,C   2,H   8)   -140.0066         0.009774   
    109. D(O   4,C   3,C   2,H   9)     99.4739         0.009774   
    110. D(H  10,C   3,C   2,C   1)   -137.7432         0.009774   
    111. D(H  10,C   3,C   2,H   8)    100.4468         0.009774   
    112. D(H  10,C   3,C   2,H   9)    -20.0727         0.009774   
    113. D(H  11,C   3,C   2,C   1)     98.8667         0.009774   
    114. D(O   4,C   3,C   2,C   1)    -18.1967         0.009774 C 
    115. D(H  11,C   3,C   2,H   8)    -22.9433         0.009774   
    116. D(C   3,O   4,C   0,C   1)     29.5918         0.014035 C 
    117. D(C   3,O   4,C   0,H   5)    151.2015         0.014035   
    118. D(C   3,O   4,C   0,O  15)    -90.0711         0.014035   
    119. D(C   0,O   4,C   3,C   2)     -6.8732         0.012866 C 
    120. D(C   0,O   4,C   3,H  10)    114.8547         0.012866   
    121. D(C   0,O   4,C   3,H  11)   -127.4272         0.012866   
    122. D(C   0,O  15,C  12,C  16)   -165.0000         0.007786 C 
    123. D(C  12,O  15,C   0,O   4)   -105.0000         0.007793 C 
    124. D(C  12,O  15,C   0,H   5)     12.4190         0.007793   
    125. D(C   0,O  15,C  12,H  14)     74.4093         0.007786   
    126. D(C   0,O  15,C  12,H  13)    -44.5149         0.007786   
    127. D(C  12,O  15,C   0,C   1)    139.6866         0.007793   
    128. D(C  17,C  16,C  12,H  13)    -56.4062         0.009482   
    129. D(H  21,C  16,C  12,H  14)     59.5750         0.009482   
    130. D(C  17,C  16,C  12,O  15)     64.6668         0.009482   
    131. D(O  20,C  16,C  12,H  13)     58.9178         0.009482   
    132. D(O  20,C  16,C  12,H  14)    -57.8110         0.009482   
    133. D(O  20,C  16,C  12,O  15)    179.9908         0.009482 C 
    134. D(C  17,C  16,C  12,H  14)   -173.1350         0.009482   
    135. D(H  21,C  16,C  12,H  13)    176.3038         0.009482   
    136. D(H  21,C  16,C  12,O  15)    -62.6232         0.009482   
    137. D(C  18,C  17,C  16,C  12)     79.0936         0.010933   
    138. D(C  18,C  17,C  16,O  20)    -40.0142         0.010933 C 
    139. D(C  18,C  17,C  16,H  21)   -156.5578         0.010933   
    140. D(H  22,C  17,C  16,C  12)   -163.5811         0.010933   
    141. D(H  22,C  17,C  16,O  20)     77.3112         0.010933   
    142. D(H  22,C  17,C  16,H  21)    -39.2325         0.010933   
    143. D(O  23,C  17,C  16,C  12)    -42.1818         0.010933   
    144. D(O  23,C  17,C  16,O  20)   -161.2896         0.010933   
    145. D(O  23,C  17,C  16,H  21)     82.1668         0.010933   
    146. D(H  24,C  18,C  17,O  23)    -81.9812         0.009867   
    147. D(C  19,C  18,C  17,H  22)    -81.8909         0.009867   
    148. D(C  19,C  18,C  17,O  23)    156.5086         0.009867   
    149. D(H  24,C  18,C  17,C  16)    156.5390         0.009867   
    150. D(C  19,C  18,C  17,C  16)     35.0288         0.009867 C 
    151. D(H  24,C  18,C  17,H  22)     39.6193         0.009867   
    152. D(H  25,C  18,C  17,C  16)    -82.9881         0.009867   
    153. D(H  25,C  18,C  17,H  22)    160.0922         0.009867   
    154. D(H  25,C  18,C  17,O  23)     38.4918         0.009867   
    155. D(H  27,C  19,C  18,H  25)   -143.4387         0.009700   
    156. D(O  20,C  19,C  18,H  24)   -139.9794         0.009700   
    157. D(O  20,C  19,C  18,H  25)     99.4155         0.009700   
    158. D(H  26,C  19,C  18,C  17)   -137.7437         0.009700   
    159. D(H  26,C  19,C  18,H  24)    100.4768         0.009700   
    160. D(H  26,C  19,C  18,H  25)    -20.1283         0.009700   
    161. D(H  27,C  19,C  18,C  17)     98.9459         0.009700   
    162. D(O  20,C  19,C  18,C  17)    -18.1999         0.009700 C 
    163. D(H  27,C  19,C  18,H  24)    -22.8336         0.009700   
    164. D(C  19,O  20,C  16,C  12)    -90.0932         0.014053   
    165. D(C  19,O  20,C  16,C  17)     29.5893         0.014053 C 
    166. D(C  19,O  20,C  16,H  21)    151.2063         0.014053   
    167. D(C  16,O  20,C  19,C  18)     -6.8543         0.012921 C 
    168. D(C  16,O  20,C  19,H  26)    114.8208         0.012921   
    169. D(C  16,O  20,C  19,H  27)   -127.3774         0.012921   
    170. D(H  28,O  23,C  17,C  16)     57.6904         0.007761   
    171. D(H  28,O  23,C  17,C  18)    -57.0735         0.007761   
    172. D(H  28,O  23,C  17,H  22)   -179.9502         0.007761   
    -----------------------------------------------------------------

Number of atoms                         .... 29
Number of degrees of freedom            .... 172

         *************************************************************
         *                GEOMETRY OPTIMIZATION CYCLE   1            *
         *************************************************************
---------------------------------
CARTESIAN COORDINATES (ANGSTROEM)
---------------------------------
  C    -21.047907   26.221865   46.251095
  C    -20.360840   27.557813   45.943983
  C    -20.328995   28.222032   47.340887
  C    -20.110133   27.022167   48.296085
  O    -20.473063   25.807066   47.535227
  H    -20.832834   25.427773   45.533219
  H    -19.343801   27.381736   45.576129
  H    -20.897741   28.156714   45.200832
  H    -19.542993   28.978031   47.433867
  H    -21.289010   28.710083   47.547699
  H    -20.733238   27.082310   49.195003
  H    -19.064171   26.913192   48.597225
  C    -23.430892   25.259969   45.733833
  H    -23.018852   25.014029   44.746834
  H    -23.394913   24.354933   46.354781
  O    -22.585914   26.393955   46.374887
  C    -24.923931   25.650894   45.554998
  C    -25.082072   26.806981   44.561116
  C    -24.952131   26.074122   43.204033
  C    -25.628034   24.706060   43.477955
  O    -25.673915   24.546916   44.946940
  H    -25.365865   25.834785   46.536048
  H    -26.076089   27.257915   44.663236
  O    -24.017119   27.922021   44.748141
  H    -25.427223   26.617175   42.381121
  H    -23.894142   25.938206   42.949939
  H    -25.071021   23.869132   43.042833
  H    -26.659059   24.671038   43.116030
  H    -23.014103   27.493086   44.649024

----------------------------
CARTESIAN COORDINATES (A.U.)
----------------------------
  NO LB      ZA    FRAG     MASS         X           Y           Z
   0 C     6.0000    0    12.011  -39.774780   49.552144   87.401903
   1 C     6.0000    0    12.011  -38.476412   52.076719   86.821546
   2 C     6.0000    0    12.011  -38.416234   53.331911   89.461311
   3 C     6.0000    0    12.011  -38.002644   51.064495   91.266375
   4 O     8.0000    0    15.999  -38.688483   48.768286   89.828560
   5 H     1.0000    0     1.008  -39.368350   48.051528   86.045314
   6 H     1.0000    0     1.008  -36.554486   51.743982   86.126401
   7 H     1.0000    0     1.008  -39.491008   53.208479   85.417194
   8 H     1.0000    0     1.008  -36.930904   54.760543   89.637019
   9 H     1.0000    0     1.008  -40.230399   54.254194   89.852129
  10 H     1.0000    0     1.008  -39.180142   51.178149   92.965083
  11 H     1.0000    0     1.008  -36.026061   50.858562   91.835446
  12 C     6.0000    0    12.011  -44.277969   47.734424   86.424419
  13 H     1.0000    0     1.008  -43.499326   47.269664   84.559263
  14 H     1.0000    0     1.008  -44.209978   46.024154   87.597842
  15 O     8.0000    0    15.999  -42.681191   49.877346   87.635836
  16 C     6.0000    0    12.011  -47.099404   48.473165   86.086471
  17 C     6.0000    0    12.011  -47.398247   50.657852   84.208306
  18 C     6.0000    0    12.011  -47.152694   49.272950   81.643789
  19 C     6.0000    0    12.011  -48.429965   46.687687   82.161427
  20 O     8.0000    0    15.999  -48.516667   46.386949   84.937407
  21 H     1.0000    0     1.008  -47.934539   48.820669   87.940387
  22 H     1.0000    0     1.008  -49.276667   51.509995   84.401284
  23 O     8.0000    0    15.999  -45.385777   52.764973   84.561732
  24 H     1.0000    0     1.008  -48.050487   50.299171   80.088711
  25 H     1.0000    0     1.008  -45.153385   49.016106   81.163623
  26 H     1.0000    0     1.008  -47.377363   45.106122   81.339167
  27 H     1.0000    0     1.008  -50.378321   46.621505   81.477488
  28 H     1.0000    0     1.008  -43.490352   51.954403   84.374427

--------------------------------
INTERNAL COORDINATES (ANGSTROEM)
--------------------------------
 C      0   0   0     0.000000000000     0.00000000     0.00000000
 C      1   0   0     1.533334275362     0.00000000     0.00000000
 C      2   1   0     1.547103422529   101.67907390     0.00000000
 C      3   2   1     1.549188819996   103.12737509    35.02687180
 O      1   2   3     1.466801281701   104.24948604   319.98542309
 H      1   2   3     1.091872245274   114.43876658   203.42640133
 H      2   1   3     1.095759553917   110.06782188   117.34000099
 H      2   1   3     1.095088580892   113.12442239   238.72597460
 H      3   2   1     1.094523183857   112.83161078   156.54780790
 H      3   2   1     1.096628013503   110.07982737   276.98070077
 H      4   3   2     1.095413164062   112.52534669   222.25678475
 H      4   3   2     1.093891219455   112.45670684    98.86663270
 C      6   1   2     2.611173873950    78.47776017   227.74096390
 H     13   6   1     1.097464805814    64.63877488   147.02291480
 H     13   6   1     1.098163011579    93.66570063   255.39003894
 O      1   2   3     1.552547583812   111.30349807    79.08752829
 C     13   6   1     1.553695916195   158.59540669    72.00231141
 C     17  13   6     1.532754383455   111.31955180    10.41593300
 C     18  17  13     1.547784868772   101.69710658    79.09397139
 C     19  18  17     1.550314806741   103.07999587    35.02873393
 O     17  13   6     1.466621969016   110.47063111   125.74082081
 H     17  13   6     1.091595621098   109.14601552   243.12543588
 H     18  17  13     1.096285090658   110.08389112   196.41911386
 O     18  17  13     1.553196381659   113.12007947   317.81838614
 H     19  18  17     1.094441866889   112.82223180   156.53894935
 H     19  18  17     1.096529069382   110.05147051   277.01184067
 H     20  19  18     1.095464741559   112.47724869   222.25635703
 H     20  19  18     1.093265749944   112.39157244    98.94593461
 H     24  18  17     1.095377104015   109.62256771    57.69026670

---------------------------
INTERNAL COORDINATES (A.U.)
---------------------------
 C      0   0   0     0.000000000000     0.00000000     0.00000000
 C      1   0   0     2.897581852189     0.00000000     0.00000000
 C      2   1   0     2.923601769431   101.67907390     0.00000000
 C      3   2   1     2.927542599525   103.12737509    35.02687180
 O      1   2   3     2.771852715300   104.24948604   319.98542309
 H      1   2   3     2.063339516798   114.43876658   203.42640133
 H      2   1   3     2.070685465531   110.06782188   117.34000099
 H      2   1   3     2.069417510270   113.12442239   238.72597460
 H      3   2   1     2.068349064717   112.83161078   156.54780790
 H      3   2   1     2.072326616307   110.07982737   276.98070077
 H      4   3   2     2.070030883569   112.52534669   222.25678475
 H      4   3   2     2.067154825070   112.45670684    98.86663270
 C      6   1   2     4.934403509816    78.47776017   227.74096390
 H     13   6   1     2.073907924605    64.63877488   147.02291480
 H     13   6   1     2.075227342286    93.66570063   255.39003894
 O      1   2   3     2.933889743286   111.30349807    79.08752829
 C     13   6   1     2.936059777000   158.59540669    72.00231141
 C     17  13   6     2.896486015297   111.31955180    10.41593300
 C     18  17  13     2.924889516207   101.69710658    79.09397139
 C     19  18  17     2.929670406103   103.07999587    35.02873393
 O     17  13   6     2.771513863432   110.47063111   125.74082081
 H     17  13   6     2.062816772863   109.14601552   243.12543588
 H     18  17  13     2.071678586045   110.08389112   196.41911386
 O     18  17  13     2.935115793534   113.12007947   317.81838614
 H     19  18  17     2.068195397918   112.82223180   156.53894935
 H     19  18  17     2.072139639016   110.05147051   277.01184067
 H     20  19  18     2.070128350914   112.47724869   222.25635703
 H     20  19  18     2.065972858990   112.39157244    98.94593461
 H     24  18  17     2.069962739956   109.62256771    57.69026670

---------------------
BASIS SET INFORMATION
---------------------
There are 3 groups of distinct atoms

 Group   1 Type C   : 10s4p contracted to 3s2p pattern {631/31}
 Group   2 Type O   : 10s4p contracted to 3s2p pattern {631/31}
 Group   3 Type H   : 4s contracted to 2s pattern {31}

Atom   0C    basis set group =>   1
Atom   1C    basis set group =>   1
Atom   2C    basis set group =>   1
Atom   3C    basis set group =>   1
Atom   4O    basis set group =>   2
Atom   5H    basis set group =>   3
Atom   6H    basis set group =>   3
Atom   7H    basis set group =>   3
Atom   8H    basis set group =>   3
Atom   9H    basis set group =>   3
Atom  10H    basis set group =>   3
Atom  11H    basis set group =>   3
Atom  12C    basis set group =>   1
Atom  13H    basis set group =>   3
Atom  14H    basis set group =>   3
Atom  15O    basis set group =>   2
Atom  16C    basis set group =>   1
Atom  17C    basis set group =>   1
Atom  18C    basis set group =>   1
Atom  19C    basis set group =>   1
Atom  20O    basis set group =>   2
Atom  21H    basis set group =>   3
Atom  22H    basis set group =>   3
Atom  23O    basis set group =>   2
Atom  24H    basis set group =>   3
Atom  25H    basis set group =>   3
Atom  26H    basis set group =>   3
Atom  27H    basis set group =>   3
Atom  28H    basis set group =>   3
------------------------------------------------------------------------------
                           ORCA GTO INTEGRAL CALCULATION
------------------------------------------------------------------------------

                         BASIS SET STATISTICS AND STARTUP INFO

 # of primitive gaussian shells          ...  246
 # of primitive gaussian functions       ...  350
 # of contracted shells                  ...   97
 # of contracted basis functions         ...  149
 Highest angular momentum                ...    1
 Maximum contraction depth               ...    6
 Integral package used                   ... LIBINT
 Integral threshhold            Thresh   ...  2.500e-11
 Primitive cut-off              TCut     ...  2.500e-12


------------------------------ INTEGRAL EVALUATION ----------------------------


 * One electron integrals 
 Pre-screening matrix                    ... done
 Shell pair data                         ... done (   0.003 sec)

-------------------------------------------------------------------------------
                                 ORCA SCF
-------------------------------------------------------------------------------

------------
SCF SETTINGS
------------
Hamiltonian:
 Density Functional     Method          .... DFT(GTOs)
 Exchange Functional    Exchange        .... B88
   X-Alpha parameter    XAlpha          ....  0.666667
   Becke's b parameter  XBeta           ....  0.004200
 Correlation Functional Correlation     .... LYP
 LDA part of GGA corr.  LDAOpt          .... VWN-5
 Gradients option       PostSCFGGA      .... off
 Hybrid DFT is turned on
   Fraction HF Exchange ScalHFX         ....  0.200000
   Scaling of DF-GGA-X  ScalDFX         ....  0.720000
   Scaling of DF-GGA-C  ScalDFC         ....  0.810000
   Scaling of DF-LDA-C  ScalLDAC        ....  1.000000
   Perturbative correction              ....  0.000000
   Density functional embedding theory  .... OFF
   NL short-range parameter             ....  4.800000


General Settings:
 Integral files         IntName         .... project_8051/ensemble_255_195
 Hartree-Fock type      HFTyp           .... RHF
 Total Charge           Charge          ....    0
 Multiplicity           Mult            ....    1
 Number of Electrons    NEL             ....  102
 Basis Dimension        Dim             ....  149
 Nuclear Repulsion      ENuc            ....    863.5485224477 Eh

Convergence Acceleration:
 DIIS                   CNVDIIS         .... on
   Start iteration      DIISMaxIt       ....    12
   Startup error        DIISStart       ....  0.200000
   # of expansion vecs  DIISMaxEq       ....     5
   Bias factor          DIISBfac        ....   1.050
   Max. coefficient     DIISMaxC        ....  10.000
 Newton-Raphson         CNVNR           .... off
 SOSCF                  CNVSOSCF        .... on
   Start iteration      SOSCFMaxIt      ....   150
   Startup grad/error   SOSCFStart      ....  0.003300
 Level Shifting         CNVShift        .... on
   Level shift para.    LevelShift      ....    0.2500
   Turn off err/grad.   ShiftErr        ....    0.0010
 Zerner damping         CNVZerner       .... off
 Static damping         CNVDamp         .... on
   Fraction old density DampFac         ....    0.7000
   Max. Damping (<1)    DampMax         ....    0.9800
   Min. Damping (>=0)   DampMin         ....    0.0000
   Turn off err/grad.   DampErr         ....    0.1000
 Fernandez-Rico         CNVRico         .... off

SCF Procedure:
 Maximum # iterations   MaxIter         ....   125
 SCF integral mode      SCFMode         .... Direct
   Integral package                     .... LIBINT
 Reset frequency        DirectResetFreq ....    20
 Integral Threshold     Thresh          ....  2.500e-11 Eh
 Primitive CutOff       TCut            ....  2.500e-12 Eh

Convergence Tolerance:
 Convergence Check Mode ConvCheckMode   .... Total+1el-Energy
 Convergence forced     ConvForced      .... 0
 Energy Change          TolE            ....  1.000e-08 Eh
 1-El. energy change                    ....  1.000e-05 Eh
 Orbital Gradient       TolG            ....  1.000e-05
 Orbital Rotation angle TolX            ....  1.000e-05
 DIIS Error             TolErr          ....  5.000e-07


Diagonalization of the overlap matrix:
Smallest eigenvalue                        ... 4.026e-03
Time for diagonalization                   ...    0.007 sec
Threshold for overlap eigenvalues          ... 1.000e-08
Number of eigenvalues below threshold      ... 0
Time for construction of square roots      ...    0.014 sec
Total time needed                          ...    0.021 sec

-------------------
DFT GRID GENERATION
-------------------

General Integration Accuracy     IntAcc      ...  4.340
Radial Grid Type                 RadialGrid  ... Gauss-Chebyshev
Angular Grid (max. acc.)         AngularGrid ... Lebedev-110
Angular grid pruning method      GridPruning ... 3 (G Style)
Weight generation scheme         WeightScheme... Becke
Basis function cutoff            BFCut       ...    1.0000e-11
Integration weight cutoff        WCut        ...    1.0000e-14
Grids for H and He will be reduced by one unit

# of grid points (after initial pruning)     ...  34472 (   0.0 sec)
# of grid points (after weights+screening)   ...  31060 (   0.5 sec)
nearest neighbour list constructed           ...    0.0 sec
Grid point re-assignment to atoms done       ...    0.0 sec
Grid point division into batches done        ...    0.0 sec
Reduced shell lists constructed in    0.6 sec

Total number of grid points                  ...    31060
Total number of batches                      ...      499
Average number of points per batch           ...       62
Average number of grid points per atom       ...     1071
Average number of shells per batch           ...    57.77 (59.55%)
Average number of basis functions per batch  ...    93.64 (62.84%)
Average number of large shells per batch     ...    40.85 (70.72%)
Average number of large basis fcns per batch ...    67.58 (72.17%)
Maximum spatial batch extension              ...  21.99, 20.47, 20.88 au
Average spatial batch extension              ...   3.34,  3.53,  3.44 au

Time for grid setup =    1.137 sec

------------------------------
INITIAL GUESS: MODEL POTENTIAL
------------------------------
Loading Hartree-Fock densities                     ... done
Calculating cut-offs                               ... done
Setting up the integral package                    ... done
Initializing the effective Hamiltonian             ... done
Starting the Coulomb interaction                   ... done (   0.6 sec)
Reading the grid                                   ... done
Mapping shells                                     ... done
Starting the XC term evaluation                    ... done (   0.7 sec)
  promolecular density results
     # of electrons  =    101.987761048
     EX              =    -83.665921706
     EC              =     -3.458891597
     EX+EC           =    -87.124813303
Transforming the Hamiltonian                       ... done (   0.0 sec)
Diagonalizing the Hamiltonian                      ... done (   0.0 sec)
Back transforming the eigenvectors                 ... done (   0.0 sec)
Now organizing SCF variables                       ... done
                      ------------------
                      INITIAL GUESS DONE (   2.5 sec)
                      ------------------
--------------
SCF ITERATIONS
--------------
ITER       Energy         Delta-E        Max-DP      RMS-DP      [F,P]     Damp
               ***  Starting incremental Fock matrix formation  ***
  0   -652.5334406963   0.000000000000 0.07221425  0.00299461  0.2405171 0.7000
  1   -652.6716919043  -0.138251207987 0.04211787  0.00205109  0.1058764 0.7000
                               ***Turning on DIIS***
  2   -652.7240866954  -0.052394791142 0.05743369  0.00331534  0.0314011 0.0000
  3   -652.8095850129  -0.085498317480 0.02946273  0.00133723  0.0559985 0.0000
  4   -652.8270986888  -0.017513675907 0.00872277  0.00041971  0.0092289 0.0000
  5   -652.8280477894  -0.000949100526 0.00280134  0.00012827  0.0040946 0.0000
                      *** Initiating the SOSCF procedure ***
                           *** Shutting down DIIS ***
                      *** Re-Reading the Fockian *** 
                      *** Removing any level shift *** 
ITER      Energy       Delta-E        Grad      Rot      Max-DP    RMS-DP
  6   -652.82811863  -0.0000708395  0.000157  0.000157  0.000921  0.000053
               *** Restarting incremental Fock matrix formation ***
  7   -652.82812162  -0.0000029948  0.000095  0.000200  0.000923  0.000027
  8   -652.82812032   0.0000013010  0.000167  0.000160  0.000503  0.000017
  9   -652.82812266  -0.0000023334  0.000025  0.000040  0.000203  0.000007
 10   -652.82812257   0.0000000871  0.000033  0.000025  0.000136  0.000004
 11   -652.82812272  -0.0000001505  0.000005  0.000008  0.000030  0.000001
 12   -652.82812272   0.0000000018  0.000008  0.000005  0.000019  0.000001
                  ***Gradient check signals convergence***
              ***Rediagonalizing the Fockian in SOSCF/NRSCF***

               *****************************************************
               *                     SUCCESS                       *
               *           SCF CONVERGED AFTER  13 CYCLES          *
               *****************************************************

Setting up the final grid:

General Integration Accuracy     IntAcc      ...  4.670
Radial Grid Type                 RadialGrid  ... Gauss-Chebyshev
Angular Grid (max. acc.)         AngularGrid ... Lebedev-302
Angular grid pruning method      GridPruning ... 3 (G Style)
Weight generation scheme         WeightScheme... Becke
Basis function cutoff            BFCut       ...    1.0000e-11
Integration weight cutoff        WCut        ...    1.0000e-14
Grids for H and He will be reduced by one unit

# of grid points (after initial pruning)     ... 135060 (   0.1 sec)
# of grid points (after weights+screening)   ... 119085 (   1.2 sec)
nearest neighbour list constructed           ...    0.0 sec
Grid point re-assignment to atoms done       ...    0.0 sec
Grid point division into batches done        ...    0.5 sec
Reduced shell lists constructed in    1.6 sec

Total number of grid points                  ...   119085
Total number of batches                      ...     1876
Average number of points per batch           ...       63
Average number of grid points per atom       ...     4106
Average number of shells per batch           ...    52.69 (54.32%)
Average number of basis functions per batch  ...    85.68 (57.50%)
Average number of large shells per batch     ...    36.63 (69.52%)
Average number of large basis fcns per batch ...    60.74 (70.89%)
Maximum spatial batch extension              ...  21.67, 18.85, 21.61 au
Average spatial batch extension              ...   2.22,  2.30,  2.31 au

Final grid set up in    8.9 sec
Final integration                            ... done (   3.4 sec)
Change in XC energy                          ...    -0.000659499
Integrated number of electrons               ...   102.000197786
Previous integrated no of electrons          ...   101.996928000

----------------
TOTAL SCF ENERGY
----------------

Total Energy       :         -652.82878222 Eh          -17764.37429 eV

Components:
Nuclear Repulsion  :          863.54852245 Eh           23498.34993 eV
Electronic Energy  :        -1516.37730467 Eh          -41262.72422 eV
One Electron Energy:        -2604.86142736 Eh          -70881.88300 eV
Two Electron Energy:         1088.48412269 Eh           29619.15879 eV

Virial components:
Potential Energy   :        -1301.78170403 Eh          -35423.28105 eV
Kinetic Energy     :          648.95292181 Eh           17658.90676 eV
Virial Ratio       :            2.00597248


DFT components:
N(Alpha)           :       51.000098893058 electrons
N(Beta)            :       51.000098893058 electrons
N(Total)           :      102.000197786115 electrons
E(X)               :      -67.592752913868 Eh       
E(C)               :       -4.070332654513 Eh       
E(XC)              :      -71.663085568382 Eh       
DFET-embed. en.    :        0.000000000000 Eh       

---------------
SCF CONVERGENCE
---------------

  Last Energy change         ...   -2.9802e-09  Tolerance :   1.0000e-08
  Last MAX-Density change    ...    2.9258e-06  Tolerance :   1.0000e-07
  Last RMS-Density change    ...    1.0975e-07  Tolerance :   5.0000e-09
  Last Orbital Gradient      ...    4.6208e-07  Tolerance :   1.0000e-05
  Last Orbital Rotation      ...    7.6138e-07  Tolerance :   1.0000e-05

             **** THE GBW FILE WAS UPDATED (project_8051/ensemble_255_195.gbw) ****
             **** DENSITY FILE WAS UPDATED (project_8051/ensemble_255_195.scfp) ****
             **** ENERGY FILE WAS UPDATED (project_8051/ensemble_255_195.en.tmp) ****
             **** THE GBW FILE WAS UPDATED (project_8051/ensemble_255_195.gbw) ****
             **** DENSITY FILE WAS UPDATED (project_8051/ensemble_255_195.scfp) ****
----------------
ORBITAL ENERGIES
----------------

  NO   OCC          E(Eh)            E(eV) 
   0   2.0000     -19.150427      -521.1096 
   1   2.0000     -19.148383      -521.0540 
   2   2.0000     -19.148003      -521.0436 
   3   2.0000     -19.130642      -520.5712 
   4   2.0000     -10.289841      -280.0008 
   5   2.0000     -10.240632      -278.6618 
   6   2.0000     -10.238640      -278.6076 
   7   2.0000     -10.236544      -278.5505 
   8   2.0000     -10.233998      -278.4812 
   9   2.0000     -10.226942      -278.2892 
  10   2.0000     -10.197221      -277.4805 
  11   2.0000     -10.193236      -277.3721 
  12   2.0000     -10.188683      -277.2482 
  13   2.0000      -1.036256       -28.1980 
  14   2.0000      -1.030943       -28.0534 
  15   2.0000      -0.972647       -26.4671 
  16   2.0000      -0.950482       -25.8639 
  17   2.0000      -0.791664       -21.5423 
  18   2.0000      -0.780434       -21.2367 
  19   2.0000      -0.764410       -20.8006 
  20   2.0000      -0.733272       -19.9534 
  21   2.0000      -0.676308       -18.4033 
  22   2.0000      -0.603684       -16.4271 
  23   2.0000      -0.600666       -16.3450 
  24   2.0000      -0.592070       -16.1110 
  25   2.0000      -0.573146       -15.5961 
  26   2.0000      -0.521481       -14.1902 
  27   2.0000      -0.509417       -13.8619 
  28   2.0000      -0.492567       -13.4034 
  29   2.0000      -0.481018       -13.0892 
  30   2.0000      -0.462702       -12.5908 
  31   2.0000      -0.451442       -12.2844 
  32   2.0000      -0.437718       -11.9109 
  33   2.0000      -0.428892       -11.6707 
  34   2.0000      -0.421467       -11.4687 
  35   2.0000      -0.415665       -11.3108 
  36   2.0000      -0.404815       -11.0156 
  37   2.0000      -0.399920       -10.8824 
  38   2.0000      -0.376515       -10.2455 
  39   2.0000      -0.363890        -9.9020 
  40   2.0000      -0.361462        -9.8359 
  41   2.0000      -0.354783        -9.6541 
  42   2.0000      -0.347527        -9.4567 
  43   2.0000      -0.330261        -8.9869 
  44   2.0000      -0.321492        -8.7482 
  45   2.0000      -0.308647        -8.3987 
  46   2.0000      -0.303844        -8.2680 
  47   2.0000      -0.272223        -7.4076 
  48   2.0000      -0.259479        -7.0608 
  49   2.0000      -0.257703        -7.0125 
  50   2.0000      -0.232630        -6.3302 
  51   0.0000       0.032749         0.8912 
  52   0.0000       0.060226         1.6388 
  53   0.0000       0.068983         1.8771 
  54   0.0000       0.092406         2.5145 
  55   0.0000       0.094808         2.5799 
  56   0.0000       0.113013         3.0752 
  57   0.0000       0.118526         3.2252 
  58   0.0000       0.122208         3.3255 
  59   0.0000       0.133790         3.6406 
  60   0.0000       0.137913         3.7528 
  61   0.0000       0.139987         3.8092 
  62   0.0000       0.147238         4.0066 
  63   0.0000       0.154571         4.2061 
  64   0.0000       0.155428         4.2294 
  65   0.0000       0.162936         4.4337 
  66   0.0000       0.171274         4.6606 
  67   0.0000       0.179128         4.8743 
  68   0.0000       0.187014         5.0889 
  69   0.0000       0.189994         5.1700 
  70   0.0000       0.196777         5.3546 
  71   0.0000       0.217252         5.9117 
  72   0.0000       0.223048         6.0694 
  73   0.0000       0.230245         6.2653 
  74   0.0000       0.233732         6.3602 
  75   0.0000       0.248489         6.7617 
  76   0.0000       0.260578         7.0907 
  77   0.0000       0.271546         7.3892 
  78   0.0000       0.279347         7.6014 
  79   0.0000       0.290998         7.9185 
  80   0.0000       0.299822         8.1586 
  81   0.0000       0.521408        14.1882 
  82   0.0000       0.530992        14.4490 
  83   0.0000       0.545361        14.8400 
  84   0.0000       0.547436        14.8965 
  85   0.0000       0.556362        15.1394 
  86   0.0000       0.566860        15.4250 
  87   0.0000       0.572657        15.5828 
  88   0.0000       0.581126        15.8132 
  89   0.0000       0.589019        16.0280 
  90   0.0000       0.601821        16.3764 
  91   0.0000       0.609385        16.5822 
  92   0.0000       0.611550        16.6411 
  93   0.0000       0.622535        16.9401 
  94   0.0000       0.636681        17.3250 
  95   0.0000       0.641377        17.4528 
  96   0.0000       0.643783        17.5182 
  97   0.0000       0.657657        17.8958 
  98   0.0000       0.674816        18.3627 
  99   0.0000       0.696708        18.9584 
 100   0.0000       0.730754        19.8848 
 101   0.0000       0.760974        20.7072 
 102   0.0000       0.782133        21.2829 
 103   0.0000       0.808122        21.9901 
 104   0.0000       0.816123        22.2078 
 105   0.0000       0.822599        22.3841 
 106   0.0000       0.833431        22.6788 
 107   0.0000       0.856070        23.2949 
 108   0.0000       0.862202        23.4617 
 109   0.0000       0.877517        23.8784 
 110   0.0000       0.887392        24.1472 
 111   0.0000       0.892071        24.2745 
 112   0.0000       0.894366        24.3369 
 113   0.0000       0.907132        24.6843 
 114   0.0000       0.920367        25.0445 
 115   0.0000       0.932652        25.3788 
 116   0.0000       0.938717        25.5438 
 117   0.0000       0.941045        25.6071 
 118   0.0000       0.953415        25.9437 
 119   0.0000       0.961751        26.1706 
 120   0.0000       0.965918        26.2840 
 121   0.0000       0.997596        27.1460 
 122   0.0000       1.002651        27.2835 
 123   0.0000       1.016204        27.6523 
 124   0.0000       1.020264        27.7628 
 125   0.0000       1.041951        28.3529 
 126   0.0000       1.063610        28.9423 
 127   0.0000       1.120649        30.4944 
 128   0.0000       1.135980        30.9116 
 129   0.0000       1.155623        31.4461 
 130   0.0000       1.180915        32.1343 
 131   0.0000       1.212080        32.9824 
 132   0.0000       1.260196        34.2917 
 133   0.0000       1.280767        34.8514 
 134   0.0000       1.338299        36.4170 
 135   0.0000       1.364718        37.1359 
 136   0.0000       1.370517        37.2937 
 137   0.0000       1.400040        38.0970 
 138   0.0000       1.437381        39.1131 
 139   0.0000       1.482254        40.3342 
 140   0.0000       1.495733        40.7010 
 141   0.0000       1.573512        42.8174 
 142   0.0000       1.600825        43.5607 
 143   0.0000       1.632027        44.4097 
 144   0.0000       1.706076        46.4247 
 145   0.0000       1.881006        51.1848 
 146   0.0000       1.966365        53.5075 
 147   0.0000       2.042445        55.5778 
 148   0.0000       2.082173        56.6588 

                    ********************************
                    * MULLIKEN POPULATION ANALYSIS *
                    ********************************

-----------------------
MULLIKEN ATOMIC CHARGES
-----------------------
   0 C :    0.275287
   1 C :   -0.277931
   2 C :   -0.301838
   3 C :   -0.001426
   4 O :   -0.500301
   5 H :    0.146095
   6 H :    0.154705
   7 H :    0.153583
   8 H :    0.143494
   9 H :    0.176684
  10 H :    0.154595
  11 H :    0.141518
  12 C :   -0.049003
  13 H :    0.122304
  14 H :    0.168610
  15 O :   -0.505418
  16 C :    0.074655
  17 C :    0.097700
  18 C :   -0.323155
  19 C :   -0.012828
  20 O :   -0.514536
  21 H :    0.169753
  22 H :    0.159914
  23 O :   -0.594019
  24 H :    0.157021
  25 H :    0.139138
  26 H :    0.143248
  27 H :    0.151929
  28 H :    0.350222
Sum of atomic charges:   -0.0000000

--------------------------------
MULLIKEN REDUCED ORBITAL CHARGES
--------------------------------
  0 C s       :     3.227647  s :     3.227647
      pz      :     0.814077  p :     2.497066
      px      :     0.692501
      py      :     0.990488
  1 C s       :     3.311105  s :     3.311105
      pz      :     0.995339  p :     2.966827
      px      :     1.032419
      py      :     0.939070
  2 C s       :     3.317841  s :     3.317841
      pz      :     0.898395  p :     2.983997
      px      :     1.095774
      py      :     0.989828
  3 C s       :     3.261212  s :     3.261212
      pz      :     0.942971  p :     2.740214
      px      :     1.055906
      py      :     0.741337
  4 O s       :     3.943021  s :     3.943021
      pz      :     1.314086  p :     4.557281
      px      :     1.723296
      py      :     1.519899
  5 H s       :     0.853905  s :     0.853905
  6 H s       :     0.845295  s :     0.845295
  7 H s       :     0.846417  s :     0.846417
  8 H s       :     0.856506  s :     0.856506
  9 H s       :     0.823316  s :     0.823316
 10 H s       :     0.845405  s :     0.845405
 11 H s       :     0.858482  s :     0.858482
 12 C s       :     3.290443  s :     3.290443
      pz      :     0.994758  p :     2.758560
      px      :     0.870314
      py      :     0.893488
 13 H s       :     0.877696  s :     0.877696
 14 H s       :     0.831390  s :     0.831390
 15 O s       :     3.954673  s :     3.954673
      pz      :     1.761293  p :     4.550746
      px      :     1.236338
      py      :     1.553115
 16 C s       :     3.269302  s :     3.269302
      pz      :     1.016296  p :     2.656044
      px      :     0.876919
      py      :     0.762829
 17 C s       :     3.281797  s :     3.281797
      pz      :     0.903395  p :     2.620503
      px      :     0.924478
      py      :     0.792630
 18 C s       :     3.325690  s :     3.325690
      pz      :     1.007477  p :     2.997465
      px      :     1.049952
      py      :     0.940036
 19 C s       :     3.263606  s :     3.263606
      pz      :     0.681740  p :     2.749222
      px      :     1.075352
      py      :     0.992130
 20 O s       :     3.947632  s :     3.947632
      pz      :     1.251294  p :     4.566904
      px      :     1.725298
      py      :     1.590312
 21 H s       :     0.830247  s :     0.830247
 22 H s       :     0.840086  s :     0.840086
 23 O s       :     3.952028  s :     3.952028
      pz      :     1.913812  p :     4.641991
      px      :     1.206347
      py      :     1.521833
 24 H s       :     0.842979  s :     0.842979
 25 H s       :     0.860862  s :     0.860862
 26 H s       :     0.856752  s :     0.856752
 27 H s       :     0.848071  s :     0.848071
 28 H s       :     0.649778  s :     0.649778


                     *******************************
                     * LOEWDIN POPULATION ANALYSIS *
                     *******************************

----------------------
LOEWDIN ATOMIC CHARGES
----------------------
   0 C :    0.178448
   1 C :   -0.220350
   2 C :   -0.216159
   3 C :   -0.028032
   4 O :   -0.312252
   5 H :    0.102739
   6 H :    0.119297
   7 H :    0.120202
   8 H :    0.114704
   9 H :    0.125951
  10 H :    0.109318
  11 H :    0.101726
  12 C :   -0.052490
  13 H :    0.089608
  14 H :    0.117774
  15 O :   -0.354424
  16 C :    0.029053
  17 C :    0.044362
  18 C :   -0.238355
  19 C :   -0.032764
  20 O :   -0.317275
  21 H :    0.122063
  22 H :    0.120136
  23 O :   -0.440022
  24 H :    0.123383
  25 H :    0.106591
  26 H :    0.101494
  27 H :    0.107095
  28 H :    0.278177

-------------------------------
LOEWDIN REDUCED ORBITAL CHARGES
-------------------------------
  0 C s       :     2.980694  s :     2.980694
      pz      :     0.925057  p :     2.840858
      px      :     0.831490
      py      :     1.084311
  1 C s       :     2.976883  s :     2.976883
      pz      :     1.081738  p :     3.243467
      px      :     1.107487
      py      :     1.054242
  2 C s       :     2.973015  s :     2.973015
      pz      :     1.025791  p :     3.243143
      px      :     1.137595
      py      :     1.079758
  3 C s       :     2.983789  s :     2.983789
      pz      :     1.040273  p :     3.044243
      px      :     1.118903
      py      :     0.885067
  4 O s       :     3.609170  s :     3.609170
      pz      :     1.378608  p :     4.703082
      px      :     1.757906
      py      :     1.566568
  5 H s       :     0.897261  s :     0.897261
  6 H s       :     0.880703  s :     0.880703
  7 H s       :     0.879798  s :     0.879798
  8 H s       :     0.885296  s :     0.885296
  9 H s       :     0.874049  s :     0.874049
 10 H s       :     0.890682  s :     0.890682
 11 H s       :     0.898274  s :     0.898274
 12 C s       :     3.007718  s :     3.007718
      pz      :     1.070369  p :     3.044772
      px      :     1.001005
      py      :     0.973398
 13 H s       :     0.910392  s :     0.910392
 14 H s       :     0.882226  s :     0.882226
 15 O s       :     3.666143  s :     3.666143
      pz      :     1.794089  p :     4.688281
      px      :     1.298220
      py      :     1.595972
 16 C s       :     2.963731  s :     2.963731
      pz      :     1.080106  p :     3.007216
      px      :     1.008325
      py      :     0.918785
 17 C s       :     2.972063  s :     2.972063
      pz      :     1.039152  p :     2.983575
      px      :     0.995945
      py      :     0.948477
 18 C s       :     2.982236  s :     2.982236
      pz      :     1.088110  p :     3.256119
      px      :     1.114266
      py      :     1.053743
 19 C s       :     2.982532  s :     2.982532
      pz      :     0.829119  p :     3.050232
      px      :     1.136778
      py      :     1.084334
 20 O s       :     3.602894  s :     3.602894
      pz      :     1.320805  p :     4.714381
      px      :     1.759162
      py      :     1.634414
 21 H s       :     0.877937  s :     0.877937
 22 H s       :     0.879864  s :     0.879864
 23 O s       :     3.690275  s :     3.690275
      pz      :     1.922444  p :     4.749747
      px      :     1.261058
      py      :     1.566245
 24 H s       :     0.876617  s :     0.876617
 25 H s       :     0.893409  s :     0.893409
 26 H s       :     0.898506  s :     0.898506
 27 H s       :     0.892905  s :     0.892905
 28 H s       :     0.721823  s :     0.721823


                      *****************************
                      * MAYER POPULATION ANALYSIS *
                      *****************************

  NA   - Mulliken gross atomic population
  ZA   - Total nuclear charge
  QA   - Mulliken gross atomic charge
  VA   - Mayer's total valence
  BVA  - Mayer's bonded valence
  FA   - Mayer's free valence

  ATOM       NA         ZA         QA         VA         BVA        FA
  0 C      5.7247     6.0000     0.2753     3.6680     3.6680    -0.0000
  1 C      6.2779     6.0000    -0.2779     3.7315     3.7315     0.0000
  2 C      6.3018     6.0000    -0.3018     3.7606     3.7606     0.0000
  3 C      6.0014     6.0000    -0.0014     3.6543     3.6543    -0.0000
  4 O      8.5003     8.0000    -0.5003     1.8118     1.8118    -0.0000
  5 H      0.8539     1.0000     0.1461     0.9327     0.9327    -0.0000
  6 H      0.8453     1.0000     0.1547     0.9288     0.9288     0.0000
  7 H      0.8464     1.0000     0.1536     0.9395     0.9395    -0.0000
  8 H      0.8565     1.0000     0.1435     0.9363     0.9363     0.0000
  9 H      0.8233     1.0000     0.1767     0.9287     0.9287     0.0000
 10 H      0.8454     1.0000     0.1546     0.9254     0.9254    -0.0000
 11 H      0.8585     1.0000     0.1415     0.9283     0.9283     0.0000
 12 C      6.0490     6.0000    -0.0490     3.6482     3.6482     0.0000
 13 H      0.8777     1.0000     0.1223     0.9336     0.9336     0.0000
 14 H      0.8314     1.0000     0.1686     0.9252     0.9252     0.0000
 15 O      8.5054     8.0000    -0.5054     1.7994     1.7994    -0.0000
 16 C      5.9253     6.0000     0.0747     3.5693     3.5693     0.0000
 17 C      5.9023     6.0000     0.0977     3.6712     3.6712    -0.0000
 18 C      6.3232     6.0000    -0.3232     3.7228     3.7228    -0.0000
 19 C      6.0128     6.0000    -0.0128     3.6453     3.6453    -0.0000
 20 O      8.5145     8.0000    -0.5145     1.7699     1.7699    -0.0000
 21 H      0.8302     1.0000     0.1698     0.9304     0.9304     0.0000
 22 H      0.8401     1.0000     0.1599     0.9298     0.9298     0.0000
 23 O      8.5940     8.0000    -0.5940     1.7631     1.7631    -0.0000
 24 H      0.8430     1.0000     0.1570     0.9379     0.9379    -0.0000
 25 H      0.8609     1.0000     0.1391     0.9421     0.9421    -0.0000
 26 H      0.8568     1.0000     0.1432     0.9259     0.9259    -0.0000
 27 H      0.8481     1.0000     0.1519     0.9272     0.9272     0.0000
 28 H      0.6498     1.0000     0.3502     0.8598     0.8598     0.0000

  Mayer bond orders larger than 0.100000
B(  0-C ,  1-C ) :   0.9372 B(  0-C ,  4-O ) :   0.9255 B(  0-C ,  5-H ) :   0.9179 
B(  0-C , 15-O ) :   0.8403 B(  1-C ,  2-C ) :   0.9575 B(  1-C ,  6-H ) :   0.9340 
B(  1-C ,  7-H ) :   0.9310 B(  2-C ,  3-C ) :   0.9531 B(  2-C ,  8-H ) :   0.9446 
B(  2-C ,  9-H ) :   0.9414 B(  3-C ,  4-O ) :   0.8367 B(  3-C , 10-H ) :   0.9335 
B(  3-C , 11-H ) :   0.9387 B( 12-C , 13-H ) :   0.9175 B( 12-C , 14-H ) :   0.9227 
B( 12-C , 15-O ) :   0.8375 B( 12-C , 16-C ) :   0.9015 B( 16-C , 17-C ) :   0.8920 
B( 16-C , 20-O ) :   0.8494 B( 16-C , 21-H ) :   0.9303 B( 17-C , 18-C ) :   0.9151 
B( 17-C , 22-H ) :   0.9346 B( 17-C , 23-O ) :   0.9272 B( 18-C , 19-C ) :   0.9326 
B( 18-C , 24-H ) :   0.9432 B( 18-C , 25-H ) :   0.9428 B( 19-C , 20-O ) :   0.8358 
B( 19-C , 26-H ) :   0.9331 B( 19-C , 27-H ) :   0.9379 B( 23-O , 28-H ) :   0.7650 


-------
TIMINGS
-------

Total SCF time: 0 days 0 hours 2 min 43 sec 

Total time                  ....     163.188 sec
Sum of individual times     ....     161.969 sec  ( 99.3%)

Fock matrix formation       ....     150.123 sec  ( 92.0%)
  XC integration            ....      16.763 sec  ( 11.2% of F)
    Basis function eval.    ....       4.265 sec  ( 25.4% of XC)
    Density eval.           ....       1.949 sec  ( 11.6% of XC)
    XC-Functional eval.     ....       0.979 sec  (  5.8% of XC)
    XC-Potential eval.      ....       2.595 sec  ( 15.5% of XC)
Diagonalization             ....       0.110 sec  (  0.1%)
Density matrix formation    ....       0.009 sec  (  0.0%)
Population analysis         ....       0.013 sec  (  0.0%)
Initial guess               ....       1.408 sec  (  0.9%)
Orbital Transformation      ....       0.000 sec  (  0.0%)
Orbital Orthonormalization  ....       0.000 sec  (  0.0%)
DIIS solution               ....       0.189 sec  (  0.1%)
SOSCF solution              ....       0.099 sec  (  0.1%)
Grid generation             ....      10.019 sec  (  6.1%)

-------------------------   --------------------
FINAL SINGLE POINT ENERGY      -652.828782219691
-------------------------   --------------------

------------------------------------------------------------------------------
                         ORCA SCF GRADIENT CALCULATION
------------------------------------------------------------------------------

Gradient of the Kohn-Sham DFT energy:
Kohn-Sham wavefunction type      ... RKS
Hartree-Fock exchange scaling    ...    0.200
Number of operators              ...    1
Number of atoms                  ...   29
Basis set dimensions             ...  149
Integral neglect threshold       ... 2.5e-11
Integral primitive cutoff        ... 2.5e-12

Nuclear repulsion gradient       ... done
One Electron Gradient            ... done
Pre-screening matrix             ... done
Starting the two electron gradient:
Two electron gradient done
Exchange-correlation gradient    ... done

------------------
CARTESIAN GRADIENT
------------------

   1   C   :    0.015991491    0.011909112   -0.014266135
   2   C   :    0.012459917   -0.004345675   -0.005070420
   3   C   :    0.000288038   -0.001022612   -0.002039266
   4   C   :    0.000103316   -0.004650122   -0.003418756
   5   O   :    0.010515473   -0.005067488    0.017841856
   6   H   :    0.003218713    0.002001447   -0.000935774
   7   H   :    0.000636822    0.003247412    0.000202036
   8   H   :   -0.000399259    0.000752411   -0.001112346
   9   H   :   -0.000652058    0.000728197    0.000227096
  10   H   :   -0.000557364    0.001693733    0.001261036
  11   H   :   -0.000348797    0.000909644    0.001672218
  12   H   :   -0.000436611    0.001041706    0.000643510
  13   C   :   -0.010336253   -0.002370273   -0.010274143
  14   H   :   -0.004280972   -0.000714216   -0.001507365
  15   H   :   -0.004228096   -0.004292059   -0.001442122
  16   O   :   -0.016513144    0.022797127    0.019049434
  17   C   :   -0.014073902   -0.011112402   -0.012661823
  18   C   :   -0.035962421   -0.018119267    0.002192910
  19   C   :    0.006420415    0.001960633    0.001375621
  20   C   :   -0.001531812   -0.002110884    0.006451294
  21   O   :   -0.007916274   -0.000732322   -0.004207305
  22   H   :    0.001517337   -0.001593102    0.001431103
  23   H   :   -0.007736364   -0.008091485   -0.000972679
  24   O   :   -0.017493118    0.039903107    0.020092326
  25   H   :   -0.000732115   -0.000185943   -0.001253423
  26   H   :    0.000418368   -0.001711648    0.000025933
  27   H   :    0.000935951    0.000090345   -0.000121478
  28   H   :    0.000406712    0.000254619   -0.000430658
  29   H   :    0.070286006   -0.021169997   -0.012752680

Difference to translation invariance:
           :    0.0000000001   -0.0000000001   -0.0000000000

Norm of the cartesian gradient     ...    0.1142081011
RMS gradient                       ...    0.0122443937
MAX gradient                       ...    0.0702860065

-------
TIMINGS
-------

Total SCF gradient time            ...      300.451 sec

One electron gradient       ....       0.547 sec  (  0.2%)
Prescreening matrices       ....       0.093 sec  (  0.0%)
Two electron gradient       ....      21.821 sec  (  7.3%)
XC gradient                 ....     275.923 sec  ( 91.8%)
------------------------------------------------------------------------------
                         ORCA GEOMETRY RELAXATION STEP
------------------------------------------------------------------------------

Reading the OPT-File                    .... done
Getting information on internals        .... done
Copying old internal coords+grads       .... done
Making the new internal coordinates     .... (new redundants).... done
Validating the new internal coordinates .... (new redundants).... done
Calculating the B-matrix                .... done
Calculating the G,G- and P matrices     .... done
Transforming gradient to internals      .... done
Projecting the internal gradient        .... done
Number of atoms                         ....  29
Number of internal coordinates          .... 172
Current Energy                          ....  -652.828782220 Eh
Current gradient norm                   ....     0.114208101 Eh/bohr
Maximum allowed component of the step   ....  0.300
Current trust radius                    ....  0.300
Evaluating the initial hessian          ....  (Almloef) done
Projecting the Hessian                  .... done
Forming the augmented Hessian           .... done
Diagonalizing the augmented Hessian     .... done
Last element of RFO vector              ....  0.917336525
Lowest eigenvalues of augmented Hessian:
 -0.047856648  0.008750419  0.033045420  0.033178435  0.036531145
Length of the computed step             ....  0.433987594
Warning: the length of the step is outside the trust region - taking restricted step instead
The input lambda is                     ....    -0.047857
   iter:   1  x=   -0.090702  g=    2.295379 f(x)=     0.098345
   iter:   2  x=   -0.129485  g=    0.943847 f(x)=     0.036606
   iter:   3  x=   -0.143102  g=    0.583119 f(x)=     0.007940
   iter:   4  x=   -0.144151  g=    0.507727 f(x)=     0.000532
   iter:   5  x=   -0.144156  g=    0.502576 f(x)=     0.000003
   iter:   6  x=   -0.144156  g=    0.502550 f(x)=     0.000000
   iter:   7  x=   -0.144156  g=    0.502550 f(x)=     0.000000
The output lambda is                    ....    -0.144156 (7 iterations)
The final length of the internal step   ....  0.300000000
Converting the step to cartesian space:
 Initial RMS(Int)=    0.0228747855
Transforming coordinates:
 Iter   0:  RMS(Cart)=    0.1087220274 RMS(Int)=    0.4774975964
 Iter   1:  RMS(Cart)=    0.0050131278 RMS(Int)=    0.0019337187
 Iter   2:  RMS(Cart)=    0.0004237922 RMS(Int)=    0.0001386347
 Iter   3:  RMS(Cart)=    0.0000422508 RMS(Int)=    0.0000173198
 Iter   4:  RMS(Cart)=    0.0000035157 RMS(Int)=    0.0000015315
 Iter   5:  RMS(Cart)=    0.0000003473 RMS(Int)=    0.0000001799
 Iter   6:  RMS(Cart)=    0.0000000290 RMS(Int)=    0.0000000172
Imposing constraints:
 Iter   0:  RMS(Cart)=    0.0001909789 RMS(Int)=    0.0001423685
 Iter   1:  RMS(Cart)=    0.0001203806 RMS(Int)=    0.0001111324
 Iter   2:  RMS(Cart)=    0.0000820268 RMS(Int)=    0.0000927384
 Iter   3:  RMS(Cart)=    0.0000586054 RMS(Int)=    0.0000817360
 Iter   4:  RMS(Cart)=    0.0000432878 RMS(Int)=    0.0000750080
 Iter   5:  RMS(Cart)=    0.0000329804 RMS(Int)=    0.0000706861
 Iter   6:  RMS(Cart)=    0.0000259961 RMS(Int)=    0.0000676836
 Iter   7:  RMS(Cart)=    0.0000212713 RMS(Int)=    0.0000653964
 Iter   8:  RMS(Cart)=    0.0000180793 RMS(Int)=    0.0000634998
 Iter   9:  RMS(Cart)=    0.0000159104 RMS(Int)=    0.0000618231
 Iter  10:  RMS(Cart)=    0.0000144113 RMS(Int)=    0.0000602773
[...]
  30   2.0000      -0.473703       -12.8901 
  31   2.0000      -0.462409       -12.5828 
  32   2.0000      -0.442284       -12.0352 
  33   2.0000      -0.432604       -11.7718 
  34   2.0000      -0.428558       -11.6617 
  35   2.0000      -0.426982       -11.6188 
  36   2.0000      -0.406715       -11.0673 
  37   2.0000      -0.389029       -10.5860 
  38   2.0000      -0.382461       -10.4073 
  39   2.0000      -0.372009       -10.1229 
  40   2.0000      -0.363968        -9.9041 
  41   2.0000      -0.358654        -9.7595 
  42   2.0000      -0.349477        -9.5098 
  43   2.0000      -0.343997        -9.3606 
  44   2.0000      -0.326928        -8.8962 
  45   2.0000      -0.319286        -8.6882 
  46   2.0000      -0.295647        -8.0450 
  47   2.0000      -0.276485        -7.5235 
  48   2.0000      -0.263909        -7.1813 
  49   2.0000      -0.248899        -6.7729 
  50   2.0000      -0.246290        -6.7019 
  51   0.0000       0.053350         1.4517 
  52   0.0000       0.078553         2.1375 
  53   0.0000       0.089932         2.4472 
  54   0.0000       0.095016         2.5855 
  55   0.0000       0.104893         2.8543 
  56   0.0000       0.113294         3.0829 
  57   0.0000       0.126962         3.4548 
  58   0.0000       0.134803         3.6682 
  59   0.0000       0.136948         3.7265 
  60   0.0000       0.143042         3.8924 
  61   0.0000       0.147784         4.0214 
  62   0.0000       0.148387         4.0378 
  63   0.0000       0.159702         4.3457 
  64   0.0000       0.167166         4.5488 
  65   0.0000       0.172208         4.6860 
  66   0.0000       0.180352         4.9076 
  67   0.0000       0.184199         5.0123 
  68   0.0000       0.190516         5.1842 
  69   0.0000       0.199614         5.4318 
  70   0.0000       0.212839         5.7917 
  71   0.0000       0.217492         5.9183 
  72   0.0000       0.229542         6.2462 
  73   0.0000       0.244745         6.6599 
  74   0.0000       0.259478         7.0608 
  75   0.0000       0.263674         7.1749 
  76   0.0000       0.267866         7.2890 
  77   0.0000       0.269968         7.3462 
  78   0.0000       0.288512         7.8508 
  79   0.0000       0.299008         8.1364 
  80   0.0000       0.317422         8.6375 
  81   0.0000       0.517834        14.0910 
  82   0.0000       0.527779        14.3616 
  83   0.0000       0.540687        14.7128 
  84   0.0000       0.547103        14.8874 
  85   0.0000       0.555084        15.1046 
  86   0.0000       0.561790        15.2871 
  87   0.0000       0.574112        15.6224 
  88   0.0000       0.580315        15.7912 
  89   0.0000       0.587358        15.9828 
  90   0.0000       0.608116        16.5477 
  91   0.0000       0.615163        16.7394 
  92   0.0000       0.619878        16.8677 
  93   0.0000       0.624721        16.9995 
  94   0.0000       0.635250        17.2860 
  95   0.0000       0.651141        17.7184 
  96   0.0000       0.653544        17.7838 
  97   0.0000       0.668681        18.1957 
  98   0.0000       0.671872        18.2826 
  99   0.0000       0.700674        19.0663 
 100   0.0000       0.734425        19.9847 
 101   0.0000       0.765096        20.8193 
 102   0.0000       0.794213        21.6116 
 103   0.0000       0.814980        22.1767 
 104   0.0000       0.824338        22.4314 
 105   0.0000       0.831091        22.6151 
 106   0.0000       0.833407        22.6782 
 107   0.0000       0.858252        23.3542 
 108   0.0000       0.864698        23.5296 
 109   0.0000       0.881552        23.9883 
 110   0.0000       0.884588        24.0709 
 111   0.0000       0.888999        24.1909 
 112   0.0000       0.894855        24.3503 
 113   0.0000       0.909987        24.7620 
 114   0.0000       0.920796        25.0561 
 115   0.0000       0.931747        25.3541 
 116   0.0000       0.935459        25.4551 
 117   0.0000       0.944183        25.6925 
 118   0.0000       0.945233        25.7211 
 119   0.0000       0.962775        26.1984 
 120   0.0000       0.975273        26.5385 
 121   0.0000       0.978189        26.6179 
 122   0.0000       1.010479        27.4965 
 123   0.0000       1.022600        27.8264 
 124   0.0000       1.031897        28.0793 
 125   0.0000       1.045260        28.4430 
 126   0.0000       1.087947        29.6046 
 127   0.0000       1.115548        30.3556 
 128   0.0000       1.146896        31.2086 
 129   0.0000       1.180986        32.1363 
 130   0.0000       1.219672        33.1890 
 131   0.0000       1.232432        33.5362 
 132   0.0000       1.282258        34.8920 
 133   0.0000       1.315732        35.8029 
 134   0.0000       1.337174        36.3864 
 135   0.0000       1.353238        36.8235 
 136   0.0000       1.389039        37.7977 
 137   0.0000       1.414970        38.5033 
 138   0.0000       1.470852        40.0239 
 139   0.0000       1.499390        40.8005 
 140   0.0000       1.512315        41.1522 
 141   0.0000       1.587738        43.2045 
 142   0.0000       1.647131        44.8207 
 143   0.0000       1.679168        45.6925 
 144   0.0000       1.724550        46.9274 
 145   0.0000       1.925505        52.3957 
 146   0.0000       2.006181        54.5910 
 147   0.0000       2.020823        54.9894 
 148   0.0000       2.142736        58.3068 

                    ********************************
                    * MULLIKEN POPULATION ANALYSIS *
                    ********************************

-----------------------
MULLIKEN ATOMIC CHARGES
-----------------------
   0 C :    0.294970
   1 C :   -0.275888
   2 C :   -0.303395
   3 C :   -0.002770
   4 O :   -0.500647
   5 H :    0.150186
   6 H :    0.153072
   7 H :    0.159572
   8 H :    0.148080
   9 H :    0.165352
  10 H :    0.155126
  11 H :    0.146113
  12 C :   -0.009949
  13 H :    0.134942
  14 H :    0.172531
  15 O :   -0.553897
  16 C :    0.042582
  17 C :    0.122267
  18 C :   -0.305644
  19 C :   -0.018152
  20 O :   -0.519898
  21 H :    0.163623
  22 H :    0.144816
  23 O :   -0.650818
  24 H :    0.153240
  25 H :    0.145056
  26 H :    0.141188
  27 H :    0.150829
  28 H :    0.397514
Sum of atomic charges:   -0.0000000

--------------------------------
MULLIKEN REDUCED ORBITAL CHARGES
--------------------------------
  0 C s       :     3.196006  s :     3.196006
      pz      :     0.809816  p :     2.509024
      px      :     0.677089
      py      :     1.022119
  1 C s       :     3.311131  s :     3.311131
      pz      :     0.985182  p :     2.964757
      px      :     1.052132
      py      :     0.927443
  2 C s       :     3.317547  s :     3.317547
      pz      :     0.902234  p :     2.985848
      px      :     1.090990
      py      :     0.992623
  3 C s       :     3.264009  s :     3.264009
      pz      :     0.941444  p :     2.738760
      px      :     1.069165
      py      :     0.728152
  4 O s       :     3.937026  s :     3.937026
      pz      :     1.304778  p :     4.563621
      px      :     1.744609
      py      :     1.514234
  5 H s       :     0.849814  s :     0.849814
  6 H s       :     0.846928  s :     0.846928
  7 H s       :     0.840428  s :     0.840428
  8 H s       :     0.851920  s :     0.851920
  9 H s       :     0.834648  s :     0.834648
 10 H s       :     0.844874  s :     0.844874
 11 H s       :     0.853887  s :     0.853887
 12 C s       :     3.259993  s :     3.259993
      pz      :     1.020577  p :     2.749956
      px      :     0.867786
      py      :     0.861593
 13 H s       :     0.865058  s :     0.865058
 14 H s       :     0.827469  s :     0.827469
 15 O s       :     3.923207  s :     3.923207
      pz      :     1.799123  p :     4.630690
      px      :     1.275104
      py      :     1.556463
 16 C s       :     3.271029  s :     3.271029
      pz      :     1.023764  p :     2.686389
      px      :     0.862343
      py      :     0.800281
 17 C s       :     3.235557  s :     3.235557
      pz      :     0.919456  p :     2.642176
      px      :     0.921470
      py      :     0.801250
 18 C s       :     3.321758  s :     3.321758
      pz      :     1.002838  p :     2.983886
      px      :     1.050552
      py      :     0.930495
 19 C s       :     3.268397  s :     3.268397
      pz      :     0.675056  p :     2.749755
      px      :     1.071291
      py      :     1.003408
 20 O s       :     3.948432  s :     3.948432
      pz      :     1.269058  p :     4.571466
      px      :     1.707794
      py      :     1.594614
 21 H s       :     0.836377  s :     0.836377
 22 H s       :     0.855184  s :     0.855184
 23 O s       :     3.922861  s :     3.922861
      pz      :     1.695174  p :     4.727957
      px      :     1.430399
      py      :     1.602383
 24 H s       :     0.846760  s :     0.846760
 25 H s       :     0.854944  s :     0.854944
 26 H s       :     0.858812  s :     0.858812
 27 H s       :     0.849171  s :     0.849171
 28 H s       :     0.602486  s :     0.602486


                     *******************************
                     * LOEWDIN POPULATION ANALYSIS *
                     *******************************

----------------------
LOEWDIN ATOMIC CHARGES
----------------------
   0 C :    0.177195
   1 C :   -0.221977
   2 C :   -0.216428
   3 C :   -0.026022
   4 O :   -0.315539
   5 H :    0.104021
   6 H :    0.118319
   7 H :    0.123339
   8 H :    0.117439
   9 H :    0.119586
  10 H :    0.109917
  11 H :    0.104940
  12 C :   -0.041226
  13 H :    0.096064
  14 H :    0.117553
  15 O :   -0.340661
  16 C :    0.017925
  17 C :    0.042482
  18 C :   -0.236115
  19 C :   -0.031699
  20 O :   -0.321865
  21 H :    0.117295
  22 H :    0.103364
  23 O :   -0.441240
  24 H :    0.121929
  25 H :    0.110757
  26 H :    0.101643
  27 H :    0.106867
  28 H :    0.282137

-------------------------------
LOEWDIN REDUCED ORBITAL CHARGES
-------------------------------
  0 C s       :     2.954225  s :     2.954225
      pz      :     0.928324  p :     2.868580
      px      :     0.839221
      py      :     1.101035
  1 C s       :     2.977258  s :     2.977258
      pz      :     1.079504  p :     3.244718
      px      :     1.116985
      py      :     1.048229
  2 C s       :     2.970695  s :     2.970695
      pz      :     1.029186  p :     3.245733
      px      :     1.135240
      py      :     1.081308
  3 C s       :     2.985019  s :     2.985019
      pz      :     1.041108  p :     3.041003
      px      :     1.128851
      py      :     0.871044
  4 O s       :     3.598156  s :     3.598156
      pz      :     1.374531  p :     4.717383
      px      :     1.780678
      py      :     1.562174
  5 H s       :     0.895979  s :     0.895979
  6 H s       :     0.881681  s :     0.881681
  7 H s       :     0.876661  s :     0.876661
  8 H s       :     0.882561  s :     0.882561
  9 H s       :     0.880414  s :     0.880414
 10 H s       :     0.890083  s :     0.890083
 11 H s       :     0.895060  s :     0.895060
 12 C s       :     2.988358  s :     2.988358
      pz      :     1.086615  p :     3.052869
      px      :     0.994516
      py      :     0.971738
 13 H s       :     0.903936  s :     0.903936
 14 H s       :     0.882447  s :     0.882447
 15 O s       :     3.587110  s :     3.587110
      pz      :     1.823992  p :     4.753551
      px      :     1.330578
      py      :     1.598981
 16 C s       :     2.959346  s :     2.959346
      pz      :     1.085723  p :     3.022729
      px      :     0.994764
      py      :     0.942241
 17 C s       :     2.947640  s :     2.947640
      pz      :     1.042295  p :     3.009878
      px      :     1.009164
      py      :     0.958419
 18 C s       :     2.983460  s :     2.983460
      pz      :     1.087548  p :     3.252655
      px      :     1.115914
      py      :     1.049193
 19 C s       :     2.984191  s :     2.984191
      pz      :     0.819588  p :     3.047508
      px      :     1.135794
      py      :     1.092126
 20 O s       :     3.604154  s :     3.604154
      pz      :     1.335328  p :     4.717711
      px      :     1.742896
      py      :     1.639488
 21 H s       :     0.882705  s :     0.882705
 22 H s       :     0.896636  s :     0.896636
 23 O s       :     3.597955  s :     3.597955
      pz      :     1.719438  p :     4.843285
      px      :     1.477119
      py      :     1.646728
 24 H s       :     0.878071  s :     0.878071
 25 H s       :     0.889243  s :     0.889243
 26 H s       :     0.898357  s :     0.898357
 27 H s       :     0.893133  s :     0.893133
 28 H s       :     0.717863  s :     0.717863


                      *****************************
                      * MAYER POPULATION ANALYSIS *
                      *****************************

  NA   - Mulliken gross atomic population
  ZA   - Total nuclear charge
  QA   - Mulliken gross atomic charge
  VA   - Mayer's total valence
  BVA  - Mayer's bonded valence
  FA   - Mayer's free valence

  ATOM       NA         ZA         QA         VA         BVA        FA
  0 C      5.7050     6.0000     0.2950     3.6600     3.6600    -0.0000
  1 C      6.2759     6.0000    -0.2759     3.7278     3.7278    -0.0000
  2 C      6.3034     6.0000    -0.3034     3.7625     3.7625    -0.0000
  3 C      6.0028     6.0000    -0.0028     3.6522     3.6522    -0.0000
  4 O      8.5006     8.0000    -0.5006     1.7978     1.7978    -0.0000
  5 H      0.8498     1.0000     0.1502     0.9361     0.9361    -0.0000
  6 H      0.8469     1.0000     0.1531     0.9313     0.9313     0.0000
  7 H      0.8404     1.0000     0.1596     0.9423     0.9423    -0.0000
  8 H      0.8519     1.0000     0.1481     0.9364     0.9364    -0.0000
  9 H      0.8346     1.0000     0.1654     0.9320     0.9320    -0.0000
 10 H      0.8449     1.0000     0.1551     0.9258     0.9258    -0.0000
 11 H      0.8539     1.0000     0.1461     0.9288     0.9288    -0.0000
 12 C      6.0099     6.0000    -0.0099     3.5894     3.5894    -0.0000
 13 H      0.8651     1.0000     0.1349     0.9348     0.9348    -0.0000
 14 H      0.8275     1.0000     0.1725     0.9233     0.9233    -0.0000
 15 O      8.5539     8.0000    -0.5539     1.7332     1.7332    -0.0000
 16 C      5.9574     6.0000     0.0426     3.6238     3.6238    -0.0000
 17 C      5.8777     6.0000     0.1223     3.6798     3.6798    -0.0000
 18 C      6.3056     6.0000    -0.3056     3.7041     3.7041    -0.0000
 19 C      6.0182     6.0000    -0.0182     3.6527     3.6527    -0.0000
 20 O      8.5199     8.0000    -0.5199     1.7652     1.7652    -0.0000
 21 H      0.8364     1.0000     0.1636     0.9287     0.9287    -0.0000
 22 H      0.8552     1.0000     0.1448     0.9234     0.9234     0.0000
 23 O      8.6508     8.0000    -0.6508     1.7099     1.7099    -0.0000
 24 H      0.8468     1.0000     0.1532     0.9384     0.9384    -0.0000
 25 H      0.8549     1.0000     0.1451     0.9423     0.9423     0.0000
 26 H      0.8588     1.0000     0.1412     0.9267     0.9267     0.0000
 27 H      0.8492     1.0000     0.1508     0.9272     0.9272    -0.0000
 28 H      0.6025     1.0000     0.3975     0.8347     0.8347     0.0000

  Mayer bond orders larger than 0.100000
B(  0-C ,  1-C ) :   0.9455 B(  0-C ,  4-O ) :   0.9420 B(  0-C ,  5-H ) :   0.9201 
B(  0-C , 15-O ) :   0.8072 B(  1-C ,  2-C ) :   0.9537 B(  1-C ,  6-H ) :   0.9379 
B(  1-C ,  7-H ) :   0.9308 B(  2-C ,  3-C ) :   0.9528 B(  2-C ,  8-H ) :   0.9447 
B(  2-C ,  9-H ) :   0.9438 B(  3-C ,  4-O ) :   0.8315 B(  3-C , 10-H ) :   0.9347 
B(  3-C , 11-H ) :   0.9397 B( 12-C , 13-H ) :   0.9194 B( 12-C , 14-H ) :   0.9215 
B( 12-C , 15-O ) :   0.7889 B( 12-C , 16-C ) :   0.9106 B( 15-O , 28-H ) :   0.1010 
B( 16-C , 17-C ) :   0.9160 B( 16-C , 20-O ) :   0.8578 B( 16-C , 21-H ) :   0.9278 
B( 17-C , 18-C ) :   0.9041 B( 17-C , 22-H ) :   0.9278 B( 17-C , 23-O ) :   0.9302 
B( 18-C , 19-C ) :   0.9402 B( 18-C , 24-H ) :   0.9447 B( 18-C , 25-H ) :   0.9427 
B( 19-C , 20-O ) :   0.8316 B( 19-C , 26-H ) :   0.9344 B( 19-C , 27-H ) :   0.9383 
B( 23-O , 28-H ) :   0.7088 

-------
TIMINGS
-------

Total SCF time: 0 days 0 hours 1 min 57 sec 

Total time                  ....     117.582 sec
Sum of individual times     ....     114.638 sec  ( 97.5%)

Fock matrix formation       ....     108.617 sec  ( 92.4%)
  XC integration            ....      16.118 sec  ( 14.8% of F)
    Basis function eval.    ....       2.862 sec  ( 17.8% of XC)
    Density eval.           ....       1.329 sec  (  8.2% of XC)
    XC-Functional eval.     ....       0.628 sec  (  3.9% of XC)
    XC-Potential eval.      ....       1.576 sec  (  9.8% of XC)
Diagonalization             ....       0.018 sec  (  0.0%)
Density matrix formation    ....       0.005 sec  (  0.0%)
Population analysis         ....       0.151 sec  (  0.1%)
Initial guess               ....       0.008 sec  (  0.0%)
Orbital Transformation      ....       0.000 sec  (  0.0%)
Orbital Orthonormalization  ....       0.005 sec  (  0.0%)
DIIS solution               ....       0.001 sec  (  0.0%)
SOSCF solution              ....       0.141 sec  (  0.1%)
Grid generation             ....       5.697 sec  (  4.8%)

-------------------------   --------------------
FINAL SINGLE POINT ENERGY      -652.867222412870
-------------------------   --------------------

                                *** OPTIMIZATION RUN DONE ***

                            ***************************************
                            *     ORCA property calculations      *
                            ***************************************

                                    ---------------------
                                    Active property flags
                                    ---------------------
   (+) Dipole Moment


------------------------------------------------------------------------------
                       ORCA ELECTRIC PROPERTIES CALCULATION
------------------------------------------------------------------------------

Dipole Moment Calculation                       ... on
Quadrupole Moment Calculation                   ... off
Polarizability Calculation                      ... off
GBWName                                         ... project_8051/ensemble_255_195.gbw
Electron density file                           ... project_8051/ensemble_255_195.scfp
The origin for moment calculation is the CENTER OF MASS  = (-43.349849, 49.731983 86.287482)

-------------
DIPOLE MOMENT
-------------
                                X             Y             Z
Electronic contribution:     -2.04499      -2.38215       2.12615
Nuclear contribution   :      2.81282       2.53313      -2.47435
                        -----------------------------------------
Total Dipole Moment    :      0.76783       0.15098      -0.34820
                        -----------------------------------------
Magnitude (a.u.)       :      0.85650
Magnitude (Debye)      :      2.17706



--------------------
Rotational spectrum 
--------------------
 
Rotational constants in cm-1:     0.061415     0.013344     0.012135 
Rotational constants in MHz :  1841.189213   400.050863   363.800250 

 Dipole components along the rotational axes: 
x,y,z [a.u.] :    -0.479824     0.287456     0.648643 
x,y,z [Debye]:    -1.219615     0.730655     1.648720 

 

Timings for individual modules:

Sum of individual times         ...     2226.770 sec (=  37.113 min)
GTO integral calculation        ...        7.411 sec (=   0.124 min)   0.3 %
SCF iterations                  ...     1489.884 sec (=  24.831 min)  66.9 %
SCF Gradient evaluation         ...      717.981 sec (=  11.966 min)  32.2 %
Geometry relaxation             ...       11.494 sec (=   0.192 min)   0.5 %
                             ****ORCA TERMINATED NORMALLY****
TOTAL RUN TIME: 0 days 0 hours 37 minutes 28 seconds 383 msec
