
                                 *****************
                                 * O   R   C   A *
                                 *****************

           --- An Ab Initio, DFT and Semiempirical electronic structure package ---

                  #######################################################
                  #                        -***-                        #
                  #          Department of theory and spectroscopy      #
                  #               Directorship: Frank Neese             #
                  #        Max Planck Institute fuer Kohlenforschung    #
                  #                Kaiser Wilhelm Platz 1               #
                  #                 D-45470 Muelheim/Ruhr               #
                  #                      Germany                        #
                  #                                                     #
                  #                  All rights reserved                #
                  #                        -***-                        #
                  #######################################################


                         Program Version 4.2.0 -  RELEASE  -


 With contributions from (in alphabetic order):
   Daniel Aravena         : Magnetic Suceptibility
   Michael Atanasov       : Ab Initio Ligand Field Theory (pilot matlab implementation)
   Alexander A. Auer      : GIAO ZORA, VPT2
   Ute Becker             : Parallelization
   Giovanni Bistoni       : ED, misc. LED, open-shell LED, HFLED
   Martin Brehm           : Molecular dynamics
   Dmytro Bykov           : SCF Hessian
   Vijay G. Chilkuri      : MRCI spin determinant printing, contributions to CSF-ICE
   Dipayan Datta          : RHF DLPNO-CCSD density
   Achintya Kumar Dutta   : EOM-CC, STEOM-CC
   Dmitry Ganyushin       : Spin-Orbit,Spin-Spin,Magnetic field MRCI
   Miquel Garcia          : C-PCM Hessian, Gaussian charge scheme
   Yang Guo               : DLPNO-NEVPT2, CIM, IAO-localization
   Andreas Hansen         : Spin unrestricted coupled pair/coupled cluster methods
   Benjamin Helmich-Paris : CASSCF linear response (MC-RPA)
   Lee Huntington         : MR-EOM, pCC
   Robert Izsak           : Overlap fitted RIJCOSX, COSX-SCS-MP3, EOM
   Christian Kollmar      : KDIIS, OOCD, Brueckner-CCSD(T), CCSD density
   Simone Kossmann        : Meta GGA functionals, TD-DFT gradient, OOMP2, MP2 Hessian
   Martin Krupicka        : AUTO-CI
   Lucas Lang             : DCDCAS
   Dagmar Lenk            : GEPOL surface, SMD
   Dimitrios Liakos       : Extrapolation schemes; Compound Job, initial MDCI parallelization
   Dimitrios Manganas     : Further ROCIS development; embedding schemes
   Dimitrios Pantazis     : SARC Basis sets
   Taras Petrenko         : DFT Hessian,TD-DFT gradient, ASA, ECA, R-Raman, ABS, FL, XAS/XES, NRVS
   Peter Pinski           : DLPNO-MP2, DLPNO-MP2 Gradient
   Christoph Reimann      : Effective Core Potentials
   Marius Retegan         : Local ZFS, SOC
   Christoph Riplinger    : Optimizer, TS searches, QM/MM, DLPNO-CCSD(T), (RO)-DLPNO pert. Triples
   Tobias Risthaus        : Range-separated hybrids, TD-DFT gradient, RPA, STAB
   Michael Roemelt        : Original ROCIS implementation
   Masaaki Saitow         : Open-shell DLPNO-CCSD energy and density
   Barbara Sandhoefer     : DKH picture change effects
   Avijit Sen             : IP-ROCIS
   Kantharuban Sivalingam : CASSCF convergence, NEVPT2, FIC-MRCI
   Bernardo de Souza      : ESD, SOC TD-DFT
   Georgi Stoychev        : AutoAux, RI-MP2 NMR
   Willem Van den Heuvel  : Paramagnetic NMR
   Boris Wezisla          : Elementary symmetry handling
   Frank Wennmohs         : Technical directorship


 We gratefully acknowledge several colleagues who have allowed us to
 interface, adapt or use parts of their codes:
   Stefan Grimme, W. Hujo, H. Kruse,             : VdW corrections, initial TS optimization,
                  C. Bannwarth                     DFT functionals, gCP, sTDA/sTD-DF
   Ed Valeev, F. Pavosevic, A. Kumar             : LibInt (2-el integral package), F12 methods
   Garnet Chan, S. Sharma, J. Yang, R. Olivares  : DMRG
   Ulf Ekstrom                                   : XCFun DFT Library
   Mihaly Kallay                                 : mrcc  (arbitrary order and MRCC methods)
   Andreas Klamt, Michael Diedenhofen            : otool_cosmo (COSMO solvation model)
   Jiri Pittner, Ondrej Demel                    : Mk-CCSD
   Frank Weinhold                                : gennbo (NPA and NBO analysis)
   Christopher J. Cramer and Donald G. Truhlar   : smd solvation model
   Lars Goerigk                                  : TD-DFT with DH, B97 family of functionals
   V. Asgeirsson, H. Jonsson                     : NEB implementation
   FAccTs GmbH                                   : IRC, NEB, NEB-TS, Multilevel, MM, QM/MM, CI optimization
   S Lehtola, MJT Oliveira, MAL Marques          : LibXC Library


 Your calculation uses the libint2 library for the computation of 2-el integrals
 For citations please refer to: http://libint.valeyev.net

 Your ORCA version has been built with support for libXC version: 4.2.3
 For citations please refer to: https://tddft.org/programs/libxc/

 This ORCA versions uses:
   CBLAS   interface :  Fast vector & matrix operations
   LAPACKE interface :  Fast linear algebra routines
   SCALAPACK package :  Parallel linear algebra routines


----- Orbital basis set information -----
Your calculation utilizes the basis: 6-31G
   H-He, Li-Ne : W. J. Hehre, R. Ditchfield and J.A. Pople, J. Chem. Phys. 56, 2257 (1972).
                 Note: He and Ne are unpublished basis sets taken from the Gaussian program.
                 Note: Li and B from J. D. Dill and J. A. Pople, J. Chem. Phys. 62, 2921 (1975).
   Na - Ar     : M. M. Francl, W. J. Pietro, W. J. Hehre, J. S. Binkley, M. S. Gordon, 
                 D. J. DeFrees and J. A. Pople, J. Chem. Phys. 77, 3654 (1982).
   K - Zn      : V. A. Rassolov, J. A. Pople, M. A. Ratner, and T. L. Windus, J. Chem. Phys. 109, 1223 (1998).

================================================================================
                                        WARNINGS
                       Please study these warnings very carefully!
================================================================================


WARNING: Geometry Optimization
  ===> : Switching off AutoStart
         For restart on a previous wavefunction, please use MOREAD

INFO   : the flag for use of LIBINT has been found!

================================================================================
                                       INPUT FILE
================================================================================
NAME = project_8048/ensemble_345_165.inp
|  1> # Test redundant internal optimization
|  2> #
|  3> ! RKS B3LYP  Opt TightSCF SmallPrint
|  4> 
|  5> %basis
|  6>         Basis "6-31G"
|  7> end
|  8> 
|  9> %geom
| 10> Constraints
| 11> { D 4  0  15  12  345.0   C } # D for Dihedral angle
| 12> { D 0  15  12  16  165.0   C } # D for Dihedral angle
| 13> { D 0  4  3  2   C } # D for Dihedral angle
| 14> { D 4  3  2  1   C } # D for Dihedral angle
| 15> { D 3  2  1  0   C } # D for Dihedral angle
| 16> { D 2  1  0  4   C } # D for Dihedral angle
| 17> { D 1  0  4  3   C } # D for Dihedral angle
| 18> { D 16  20  19  18   C } # D for Dihedral angle
| 19> { D 20  19  18  17   C } # D for Dihedral angle
| 20> { D 19  18  17  16   C } # D for Dihedral angle
| 21> { D 18  17  16  20   C } # D for Dihedral angle
| 22> { D 17  16  20  19   C } # D for Dihedral angle
| 23> { D 15  12  16  20   C } # D for Dihedral angle
| 24> end
| 25> end
| 26> 
| 27> 
| 28> #%pal 
| 29> #nprocs 8
| 30> #end
| 31> 
| 32> * xyz 0 1
| 33> C  -21.048   26.222   46.251
| 34> C  -20.361   27.558   45.944
| 35> C  -20.329   28.222   47.341
| 36> C  -20.110   27.022   48.296
| 37> O  -20.473   25.807   47.535
| 38> H  -20.833   25.428   45.533
| 39> H  -19.344   27.382   45.576
| 40> H  -20.898   28.157   45.201
| 41> H  -19.543   28.978   47.434
| 42> H  -21.289   28.710   47.548
| 43> H  -20.733   27.082   49.195
| 44> H  -19.064   26.913   48.597
| 45> C  -23.221   25.764   47.645
| 46> H  -23.254   24.674   47.530
| 47> H  -22.617   25.997   48.532
| 48> O  -22.586   26.394   46.375
| 49> C  -24.665   26.272   47.910
| 50> C  -24.711   27.803   47.993
| 51> C  -24.681   28.198   46.497
| 52> C  -25.496   27.069   45.818
| 53> O  -25.539   25.945   46.779
| 54> H  -25.070   25.761   48.785
| 55> O  -26.039   28.261   48.654
| 56> H  -23.877   28.229   48.561
| 57> H  -25.106   29.190   46.311
| 58> H  -23.647   28.203   46.129
| 59> H  -25.040   26.726   44.883
| 60> H  -26.531   27.363   45.620
| 61> H  -26.888   27.846   48.100
| 62> *
| 63> 
| 64>                          ****END OF INPUT****
================================================================================

                       *****************************
                       * Geometry Optimization Run *
                       *****************************

Geometry optimization settings:
Update method            Update   .... BFGS
Choice of coordinates    CoordSys .... Z-matrix Internals
Initial Hessian          InHess   .... Almoef's Model

Convergence Tolerances:
Energy Change            TolE     ....  5.0000e-06 Eh
Max. Gradient            TolMAXG  ....  3.0000e-04 Eh/bohr
RMS Gradient             TolRMSG  ....  1.0000e-04 Eh/bohr
Max. Displacement        TolMAXD  ....  4.0000e-03 bohr
RMS Displacement         TolRMSD  ....  2.0000e-03 bohr
Strict Convergence                ....  False
------------------------------------------------------------------------------
                        ORCA OPTIMIZATION COORDINATE SETUP
------------------------------------------------------------------------------

The optimization will be done in new redundant internal coordinates
Making redundant internal coordinates   ...  (new redundants) done
Evaluating the initial hessian          ...  (Almloef) done
Evaluating the coordinates              ...  done
Calculating the B-matrix                .... done
Calculating the G-matrix                .... done
Diagonalizing the G-matrix              .... done
Imposing constraints:
 Iter   0:  RMS(Cart)=    0.0001237558 RMS(Int)=    0.0000386008
 Iter   1:  RMS(Cart)=    0.0000647443 RMS(Int)=    0.0000210029
 Iter   2:  RMS(Cart)=    0.0000349245 RMS(Int)=    0.0000123508
 Iter   3:  RMS(Cart)=    0.0000195236 RMS(Int)=    0.0000082174
 Iter   4:  RMS(Cart)=    0.0000113790 RMS(Int)=    0.0000063204
 Iter   5:  RMS(Cart)=    0.0000069624 RMS(Int)=    0.0000054465
 Iter   6:  RMS(Cart)=    0.0000045039 RMS(Int)=    0.0000050028
 Iter   7:  RMS(Cart)=    0.0000030979 RMS(Int)=    0.0000047354
 Iter   8:  RMS(Cart)=    0.0000022705 RMS(Int)=    0.0000045432
 Iter   9:  RMS(Cart)=    0.0000017683 RMS(Int)=    0.0000043859
 Iter  10:  RMS(Cart)=    0.0000014525 RMS(Int)=    0.0000042467
 Iter  11:  RMS(Cart)=    0.0000012462 RMS(Int)=    0.0000041179
 Iter  12:  RMS(Cart)=    0.0000011058 RMS(Int)=    0.0000039962
 Iter  13:  RMS(Cart)=    0.0000010059 RMS(Int)=    0.0000038797
 Iter  14:  RMS(Cart)=    0.0000009319 RMS(Int)=    0.0000037677
 Iter  15:  RMS(Cart)=    0.0000008747 RMS(Int)=    0.0000036596
 Iter  16:  RMS(Cart)=    0.0000008287 RMS(Int)=    0.0000035551
 Iter  17:  RMS(Cart)=    0.0000007905 RMS(Int)=    0.0000034540
 Iter  18:  RMS(Cart)=    0.0000007576 RMS(Int)=    0.0000033560
 Iter  19:  RMS(Cart)=    0.0000007287 RMS(Int)=    0.0000032612
 Iter  20:  RMS(Cart)=    0.0000007026 RMS(Int)=    0.0000031694
 Iter  21:  RMS(Cart)=    0.0000006787 RMS(Int)=    0.0000030804
 Iter  22:  RMS(Cart)=    0.0000006565 RMS(Int)=    0.0000029942
 Iter  23:  RMS(Cart)=    0.0000006356 RMS(Int)=    0.0000029107
 Iter  24:  RMS(Cart)=    0.0000006158 RMS(Int)=    0.0000028298
 Iter  25:  RMS(Cart)=    0.0000005970 RMS(Int)=    0.0000027513
 Iter  26:  RMS(Cart)=    0.0000005790 RMS(Int)=    0.0000026753
 Iter  27:  RMS(Cart)=    0.0000005616 RMS(Int)=    0.0000026017
 Iter  28:  RMS(Cart)=    0.0000005450 RMS(Int)=    0.0000025303
 Iter  29:  RMS(Cart)=    0.0000005289 RMS(Int)=    0.0000024610
 Iter  30:  RMS(Cart)=    0.0000005134 RMS(Int)=    0.0000023940
 Iter  31:  RMS(Cart)=    0.0000004984 RMS(Int)=    0.0000023289
 Iter  32:  RMS(Cart)=    0.0000004839 RMS(Int)=    0.0000022658
 Iter  33:  RMS(Cart)=    0.0000004698 RMS(Int)=    0.0000022047
 Iter  34:  RMS(Cart)=    0.0000004562 RMS(Int)=    0.0000021454
 Iter  35:  RMS(Cart)=    0.0000004430 RMS(Int)=    0.0000020879
 Iter  36:  RMS(Cart)=    0.0000004303 RMS(Int)=    0.0000020321
 Iter  37:  RMS(Cart)=    0.0000004179 RMS(Int)=    0.0000019780
 Iter  38:  RMS(Cart)=    0.0000004060 RMS(Int)=    0.0000019256
 Iter  39:  RMS(Cart)=    0.0000003943 RMS(Int)=    0.0000018747
 Iter  40:  RMS(Cart)=    0.0000003831 RMS(Int)=    0.0000018253
 Iter  41:  RMS(Cart)=    0.0000003722 RMS(Int)=    0.0000017774
 Iter  42:  RMS(Cart)=    0.0000003616 RMS(Int)=    0.0000017310
 Iter  43:  RMS(Cart)=    0.0000003514 RMS(Int)=    0.0000016859
 Iter  44:  RMS(Cart)=    0.0000003414 RMS(Int)=    0.0000016421
 Iter  45:  RMS(Cart)=    0.0000003318 RMS(Int)=    0.0000015997
 Iter  46:  RMS(Cart)=    0.0000003224 RMS(Int)=    0.0000015585
 Iter  47:  RMS(Cart)=    0.0000003134 RMS(Int)=    0.0000015185
 Iter  48:  RMS(Cart)=    0.0000003046 RMS(Int)=    0.0000014797
 Iter  49:  RMS(Cart)=    0.0000002961 RMS(Int)=    0.0000014421
 Iter  50:  RMS(Cart)=    0.0000002878 RMS(Int)=    0.0000014055
 Iter  51:  RMS(Cart)=    0.0000002798 RMS(Int)=    0.0000013700
 Iter  52:  RMS(Cart)=    0.0000002720 RMS(Int)=    0.0000013356
 Iter  53:  RMS(Cart)=    0.0000002644 RMS(Int)=    0.0000013021
 Iter  54:  RMS(Cart)=    0.0000002571 RMS(Int)=    0.0000012697
 Iter  55:  RMS(Cart)=    0.0000002500 RMS(Int)=    0.0000012381
 Iter  56:  RMS(Cart)=    0.0000002431 RMS(Int)=    0.0000012075
 Iter  57:  RMS(Cart)=    0.0000002364 RMS(Int)=    0.0000011778
 Iter  58:  RMS(Cart)=    0.0000002299 RMS(Int)=    0.0000011489
 Iter  59:  RMS(Cart)=    0.0000002236 RMS(Int)=    0.0000011208
 Iter  60:  RMS(Cart)=    0.0000002175 RMS(Int)=    0.0000010936
 Iter  61:  RMS(Cart)=    0.0000002116 RMS(Int)=    0.0000010671
 Iter  62:  RMS(Cart)=    0.0000002058 RMS(Int)=    0.0000010414
 Iter  63:  RMS(Cart)=    0.0000002002 RMS(Int)=    0.0000010164
 Iter  64:  RMS(Cart)=    0.0000001948 RMS(Int)=    0.0000009922
 Iter  65:  RMS(Cart)=    0.0000001896 RMS(Int)=    0.0000009686
 Iter  66:  RMS(Cart)=    0.0000001844 RMS(Int)=    0.0000009457
 Iter  67:  RMS(Cart)=    0.0000001795 RMS(Int)=    0.0000009234
 Iter  68:  RMS(Cart)=    0.0000001747 RMS(Int)=    0.0000009018
 Iter  69:  RMS(Cart)=    0.0000001700 RMS(Int)=    0.0000008808
 Iter  70:  RMS(Cart)=    0.0000001654 RMS(Int)=    0.0000008603
 Iter  71:  RMS(Cart)=    0.0000001610 RMS(Int)=    0.0000008405
 Iter  72:  RMS(Cart)=    0.0000001567 RMS(Int)=    0.0000008212
 Iter  73:  RMS(Cart)=    0.0000001526 RMS(Int)=    0.0000008024
 Iter  74:  RMS(Cart)=    0.0000001485 RMS(Int)=    0.0000007842
 Iter  75:  RMS(Cart)=    0.0000001446 RMS(Int)=    0.0000007664
 Iter  76:  RMS(Cart)=    0.0000001408 RMS(Int)=    0.0000007492
 Iter  77:  RMS(Cart)=    0.0000001371 RMS(Int)=    0.0000007324
 Iter  78:  RMS(Cart)=    0.0000001335 RMS(Int)=    0.0000007161
 Iter  79:  RMS(Cart)=    0.0000001300 RMS(Int)=    0.0000007002
 Iter  80:  RMS(Cart)=    0.0000001266 RMS(Int)=    0.0000006848
 Iter  81:  RMS(Cart)=    0.0000001233 RMS(Int)=    0.0000006698
 Iter  82:  RMS(Cart)=    0.0000001201 RMS(Int)=    0.0000006552
 Iter  83:  RMS(Cart)=    0.0000001170 RMS(Int)=    0.0000006410
 Iter  84:  RMS(Cart)=    0.0000001139 RMS(Int)=    0.0000006272
 Iter  85:  RMS(Cart)=    0.0000001110 RMS(Int)=    0.0000006137
 Iter  86:  RMS(Cart)=    0.0000001082 RMS(Int)=    0.0000006006
 Iter  87:  RMS(Cart)=    0.0000001054 RMS(Int)=    0.0000005879
 Iter  88:  RMS(Cart)=    0.0000001027 RMS(Int)=    0.0000005755
 Iter  89:  RMS(Cart)=    0.0000001001 RMS(Int)=    0.0000005635
 Iter  90:  RMS(Cart)=    0.0000000975 RMS(Int)=    0.0000005517
 Iter  91:  RMS(Cart)=    0.0000000950 RMS(Int)=    0.0000005403
 Iter  92:  RMS(Cart)=    0.0000000926 RMS(Int)=    0.0000005292
 Iter  93:  RMS(Cart)=    0.0000000903 RMS(Int)=    0.0000005183
 Iter  94:  RMS(Cart)=    0.0000000880 RMS(Int)=    0.0000005078
 Iter  95:  RMS(Cart)=    0.0000000858 RMS(Int)=    0.0000004975
 Iter  96:  RMS(Cart)=    0.0000000836 RMS(Int)=    0.0000004875
 Iter  97:  RMS(Cart)=    0.0000000815 RMS(Int)=    0.0000004778
 Iter  98:  RMS(Cart)=    0.0000000795 RMS(Int)=    0.0000004683
 Iter  99:  RMS(Cart)=    0.0000000775 RMS(Int)=    0.0000004590
 RMS(Cart) too big - taking linear step, building new B-matrix and trying again
Imposing constraints:
 Iter   0:  RMS(Cart)=    0.0000647437 RMS(Int)=    0.0000210031
 Iter   1:  RMS(Cart)=    0.0000349243 RMS(Int)=    0.0000123510
 Iter   2:  RMS(Cart)=    0.0000195237 RMS(Int)=    0.0000082177
 Iter   3:  RMS(Cart)=    0.0000113792 RMS(Int)=    0.0000063207
 Iter   4:  RMS(Cart)=    0.0000069625 RMS(Int)=    0.0000054468
 Iter   5:  RMS(Cart)=    0.0000045040 RMS(Int)=    0.0000050030
 Iter   6:  RMS(Cart)=    0.0000030980 RMS(Int)=    0.0000047356
 Iter   7:  RMS(Cart)=    0.0000022706 RMS(Int)=    0.0000045434
 Iter   8:  RMS(Cart)=    0.0000017684 RMS(Int)=    0.0000043861
 Iter   9:  RMS(Cart)=    0.0000014526 RMS(Int)=    0.0000042469
 Iter  10:  RMS(Cart)=    0.0000012463 RMS(Int)=    0.0000041181
 Iter  11:  RMS(Cart)=    0.0000011058 RMS(Int)=    0.0000039963
 Iter  12:  RMS(Cart)=    0.0000010060 RMS(Int)=    0.0000038799
 Iter  13:  RMS(Cart)=    0.0000009320 RMS(Int)=    0.0000037679
 Iter  14:  RMS(Cart)=    0.0000008747 RMS(Int)=    0.0000036598
 Iter  15:  RMS(Cart)=    0.0000008288 RMS(Int)=    0.0000035552
 Iter  16:  RMS(Cart)=    0.0000007905 RMS(Int)=    0.0000034541
 Iter  17:  RMS(Cart)=    0.0000007577 RMS(Int)=    0.0000033562
 Iter  18:  RMS(Cart)=    0.0000007288 RMS(Int)=    0.0000032613
 Iter  19:  RMS(Cart)=    0.0000007027 RMS(Int)=    0.0000031695
 Iter  20:  RMS(Cart)=    0.0000006788 RMS(Int)=    0.0000030805
 Iter  21:  RMS(Cart)=    0.0000006565 RMS(Int)=    0.0000029943
 Iter  22:  RMS(Cart)=    0.0000006357 RMS(Int)=    0.0000029108
 Iter  23:  RMS(Cart)=    0.0000006159 RMS(Int)=    0.0000028299
 Iter  24:  RMS(Cart)=    0.0000005970 RMS(Int)=    0.0000027514
 Iter  25:  RMS(Cart)=    0.0000005790 RMS(Int)=    0.0000026754
 Iter  26:  RMS(Cart)=    0.0000005617 RMS(Int)=    0.0000026017
 Iter  27:  RMS(Cart)=    0.0000005450 RMS(Int)=    0.0000025303
 Iter  28:  RMS(Cart)=    0.0000005289 RMS(Int)=    0.0000024611
 Iter  29:  RMS(Cart)=    0.0000005134 RMS(Int)=    0.0000023940
 Iter  30:  RMS(Cart)=    0.0000004984 RMS(Int)=    0.0000023290
 Iter  31:  RMS(Cart)=    0.0000004839 RMS(Int)=    0.0000022659
 Iter  32:  RMS(Cart)=    0.0000004698 RMS(Int)=    0.0000022047
 Iter  33:  RMS(Cart)=    0.0000004562 RMS(Int)=    0.0000021454
 Iter  34:  RMS(Cart)=    0.0000004431 RMS(Int)=    0.0000020879
 Iter  35:  RMS(Cart)=    0.0000004303 RMS(Int)=    0.0000020322
 Iter  36:  RMS(Cart)=    0.0000004180 RMS(Int)=    0.0000019781
 Iter  37:  RMS(Cart)=    0.0000004060 RMS(Int)=    0.0000019256
 Iter  38:  RMS(Cart)=    0.0000003944 RMS(Int)=    0.0000018747
 Iter  39:  RMS(Cart)=    0.0000003831 RMS(Int)=    0.0000018253
 Iter  40:  RMS(Cart)=    0.0000003722 RMS(Int)=    0.0000017775
 Iter  41:  RMS(Cart)=    0.0000003616 RMS(Int)=    0.0000017310
 Iter  42:  RMS(Cart)=    0.0000003514 RMS(Int)=    0.0000016859
 Iter  43:  RMS(Cart)=    0.0000003414 RMS(Int)=    0.0000016422
 Iter  44:  RMS(Cart)=    0.0000003318 RMS(Int)=    0.0000015997
 Iter  45:  RMS(Cart)=    0.0000003225 RMS(Int)=    0.0000015585
 Iter  46:  RMS(Cart)=    0.0000003134 RMS(Int)=    0.0000015185
 Iter  47:  RMS(Cart)=    0.0000003046 RMS(Int)=    0.0000014797
 Iter  48:  RMS(Cart)=    0.0000002961 RMS(Int)=    0.0000014421
 Iter  49:  RMS(Cart)=    0.0000002878 RMS(Int)=    0.0000014055
 Iter  50:  RMS(Cart)=    0.0000002798 RMS(Int)=    0.0000013700
 Iter  51:  RMS(Cart)=    0.0000002720 RMS(Int)=    0.0000013356
 Iter  52:  RMS(Cart)=    0.0000002645 RMS(Int)=    0.0000013021
 Iter  53:  RMS(Cart)=    0.0000002571 RMS(Int)=    0.0000012696
 Iter  54:  RMS(Cart)=    0.0000002500 RMS(Int)=    0.0000012381
 Iter  55:  RMS(Cart)=    0.0000002431 RMS(Int)=    0.0000012075
 Iter  56:  RMS(Cart)=    0.0000002364 RMS(Int)=    0.0000011777
 Iter  57:  RMS(Cart)=    0.0000002300 RMS(Int)=    0.0000011489
 Iter  58:  RMS(Cart)=    0.0000002237 RMS(Int)=    0.0000011208
 Iter  59:  RMS(Cart)=    0.0000002175 RMS(Int)=    0.0000010936
 Iter  60:  RMS(Cart)=    0.0000002116 RMS(Int)=    0.0000010671
 Iter  61:  RMS(Cart)=    0.0000002058 RMS(Int)=    0.0000010414
 Iter  62:  RMS(Cart)=    0.0000002003 RMS(Int)=    0.0000010164
 Iter  63:  RMS(Cart)=    0.0000001948 RMS(Int)=    0.0000009921
CONVERGED
Small eigenvalue found = 6.329e-03
Small eigenvalue found = 1.108e-02
Small eigenvalue found = 1.767e-02
The first mode is                       ....   91
The number of degrees of freedom        ....   81
Storing new coordinates                 .... done

    -----------------------------------------------------------------
                    Redundant Internal Coordinates


    -----------------------------------------------------------------
         Definition                    Initial Value    Approx d2E/dq
    -----------------------------------------------------------------
      1. B(C   1,C   0)                  1.5333         0.369027   
      2. B(C   2,C   1)                  1.5471         0.350825   
      3. B(C   3,C   2)                  1.5492         0.348147   
      4. B(O   4,C   0)                  1.4668         0.422031   
      5. B(O   4,C   3)                  1.4789         0.403699   
      6. B(H   5,C   0)                  1.0919         0.357632   
      7. B(H   6,C   1)                  1.0958         0.352561   
      8. B(H   7,C   1)                  1.0951         0.353431   
      9. B(H   8,C   2)                  1.0945         0.354166   
     10. B(H   9,C   2)                  1.0966         0.351438   
     11. B(H  10,C   3)                  1.0954         0.353010   
     12. B(H  11,C   3)                  1.0939         0.354989   
     13. B(H  13,C  12)                  1.0965         0.351543   
     14. B(H  14,C  12)                  1.0981         0.349513   
     15. B(O  15,C   0)                  1.5525         0.307993   
     16. B(O  15,C  12)                  1.5534         0.307040   
     17. B(C  16,C  12)                  1.5535         0.342651   
     18. B(C  17,C  16)                  1.5339         0.368209   
     19. B(C  18,C  17)                  1.5476         0.350237   
     20. B(C  19,C  18)                  1.5492         0.348180   
     21. B(O  20,C  16)                  1.4663         0.422845   
     22. B(O  20,C  19)                  1.4794         0.402882   
     23. B(H  21,C  16)                  1.0912         0.358484   
     24. B(O  22,C  17)                  1.5525         0.308042   
     25. B(H  23,C  17)                  1.0953         0.353172   
     26. B(H  24,C  18)                  1.0951         0.353392   
     27. B(H  25,C  18)                  1.0975         0.350256   
     28. B(H  26,C  19)                  1.0954         0.353081   
     29. B(H  27,C  19)                  1.0940         0.354830   
     30. B(H  28,O  22)                  1.0954         0.316166   
     31. A(O   4,C   0,H   5)          107.0166         0.328541   
     32. A(C   1,C   0,O  15)          111.3062         0.348740   
     33. A(C   1,C   0,O   4)          104.2509         0.367935   
     34. A(O   4,C   0,O  15)          110.4722         0.354548   
     35. A(C   1,C   0,H   5)          114.4408         0.323302   
     36. A(H   5,C   0,O  15)          109.1540         0.312058   
     37. A(C   0,C   1,C   2)          101.6783         0.358729   
     38. A(C   2,C   1,H   7)          112.8334         0.320016   
     39. A(C   2,C   1,H   6)          110.6701         0.319888   
     40. A(C   0,C   1,H   6)          110.0681         0.322546   
     41. A(H   6,C   1,H   7)          108.3679         0.289027   
     42. A(C   0,C   1,H   7)          113.1246         0.322677   
     43. A(C   1,C   2,H   8)          112.8312         0.320125   
     44. A(C   1,C   2,C   3)          103.1286         0.355196   
     45. A(C   1,C   2,H   9)          110.0795         0.319721   
     46. A(C   3,C   2,H   9)          110.6147         0.319321   
     47. A(C   3,C   2,H   8)          112.4032         0.319725   
     48. A(H   8,C   2,H   9)          107.7731         0.288977   
     49. A(O   4,C   3,H  10)          109.1301         0.325449   
     50. A(C   2,C   3,H  10)          112.5254         0.319554   
     51. A(C   2,C   3,O   4)          106.5267         0.361529   
     52. A(O   4,C   3,H  11)          107.1240         0.325748   
     53. A(H  10,C   3,H  11)          108.8727         0.289284   
     54. A(C   2,C   3,H  11)          112.4569         0.319846   
     55. A(C   0,O   4,C   3)          108.3127         0.371320   
     56. A(H  14,C  12,C  16)          107.7065         0.318208   
     57. A(H  13,C  12,H  14)          108.1905         0.288392   
     58. A(H  13,C  12,O  15)          109.2515         0.311036   
     59. A(H  14,C  12,O  15)          110.4551         0.310746   
     60. A(O  15,C  12,C  16)          112.7560         0.344238   
     61. A(H  13,C  12,C  16)          108.3552         0.318509   
     62. A(C   0,O  15,C  12)          115.1709         0.336101   
     63. A(C  12,C  16,C  17)          111.3142         0.357159   
     64. A(C  12,C  16,O  20)          110.4594         0.363412   
     65. A(C  17,C  16,O  20)          104.2676         0.367917   
     66. A(C  12,C  16,H  21)          109.1854         0.319527   
     67. A(C  17,C  16,H  21)          114.3852         0.323311   
     68. A(O  20,C  16,H  21)          107.0278         0.328775   
     69. A(C  16,C  17,C  18)          101.6459         0.358491   
     70. A(C  16,C  17,O  22)          110.0678         0.348619   
     71. A(C  18,C  17,O  22)          110.6625         0.345696   
     72. A(C  16,C  17,H  23)          113.1675         0.322520   
     73. A(C  18,C  17,H  23)          112.7851         0.319891   
     74. A(O  22,C  17,H  23)          108.4090         0.311433   
     75. A(C  17,C  18,C  19)          103.1492         0.355101   
     76. A(C  17,C  18,H  24)          112.8219         0.319923   
     77. A(C  19,C  18,H  24)          112.4294         0.319615   
     78. A(C  17,C  18,H  25)          110.0932         0.319458   
     79. A(C  19,C  18,H  25)          110.6091         0.319151   
     80. A(H  24,C  18,H  25)          107.7306         0.288725   
     81. A(C  18,C  19,O  20)          106.5153         0.361410   
     82. A(C  18,C  19,H  26)          112.5402         0.319569   
     83. A(O  20,C  19,H  26)          109.1879         0.325351   
     84. A(C  18,C  19,H  27)          112.4074         0.319827   
     85. A(O  20,C  19,H  27)          107.1117         0.325615   
     86. A(H  26,C  19,H  27)          108.8752         0.289273   
     87. A(C  16,O  20,C  19)          108.3173         0.371314   
     88. A(C  17,O  22,H  28)          109.6259         0.303402   
     89. D(H   7,C   1,C   0,H   5)     82.1535         0.010890   
     90. D(C   2,C   1,C   0,O  15)     79.0888         0.010890   
     91. D(H   7,C   1,C   0,O  15)    -42.1859         0.010890   
     92. D(H   6,C   1,C   0,O   4)     77.3245         0.010890   
     93. D(H   6,C   1,C   0,O  15)   -163.5721         0.010890   
     94. D(H   6,C   1,C   0,H   5)    -39.2326         0.010890   
     95. D(H   7,C   1,C   0,O   4)   -161.2893         0.010890   
     96. D(C   2,C   1,C   0,O   4)    -40.0146         0.010890 C 
     97. D(C   2,C   1,C   0,H   5)   -156.5718         0.010890   
     98. D(H   9,C   2,C   1,H   6)    160.0777         0.009912   
     99. D(H   8,C   2,C   1,C   0)    156.5478         0.009912   
    100. D(H   8,C   2,C   1,H   6)     39.6450         0.009912   
    101. D(C   3,C   2,C   1,C   0)     35.0268         0.009912 C 
    102. D(H   8,C   2,C   1,H   7)    -81.9750         0.009912   
    103. D(H   9,C   2,C   1,C   0)    -83.0196         0.009912   
    104. D(C   3,C   2,C   1,H   6)    -81.8760         0.009912   
    105. D(H   9,C   2,C   1,H   7)     38.4577         0.009912   
    106. D(C   3,C   2,C   1,H   7)    156.5040         0.009912   
    107. D(H  11,C   3,C   2,H   9)   -143.4626         0.009774   
    108. D(O   4,C   3,C   2,H   8)   -140.0068         0.009774   
    109. D(O   4,C   3,C   2,H   9)     99.4741         0.009774   
    110. D(H  10,C   3,C   2,C   1)   -137.7432         0.009774   
    111. D(H  10,C   3,C   2,H   8)    100.4467         0.009774   
    112. D(H  10,C   3,C   2,H   9)    -20.0724         0.009774   
    113. D(H  11,C   3,C   2,C   1)     98.8666         0.009774   
    114. D(O   4,C   3,C   2,C   1)    -18.1967         0.009774 C 
    115. D(H  11,C   3,C   2,H   8)    -22.9436         0.009774   
    116. D(C   3,O   4,C   0,C   1)     29.5920         0.014035 C 
    117. D(C   3,O   4,C   0,H   5)    151.2041         0.014035   
    118. D(C   3,O   4,C   0,O  15)    -90.0766         0.014035   
    119. D(C   0,O   4,C   3,C   2)     -6.8730         0.012866 C 
    120. D(C   0,O   4,C   3,H  10)    114.8547         0.012866   
    121. D(C   0,O   4,C   3,H  11)   -127.4270         0.012866   
    122. D(C   0,O  15,C  12,C  16)    165.0000         0.007751 C 
    123. D(C  12,O  15,C   0,O   4)    -15.0000         0.007793 C 
    124. D(C  12,O  15,C   0,H   5)    102.4100         0.007793   
    125. D(C   0,O  15,C  12,H  14)     44.4384         0.007751   
    126. D(C   0,O  15,C  12,H  13)    -74.4554         0.007751   
    127. D(C  12,O  15,C   0,C   1)   -130.3182         0.007793   
    128. D(C  17,C  16,C  12,H  13)   -176.3712         0.009493   
    129. D(H  21,C  16,C  12,H  14)    -60.4209         0.009493   
    130. D(C  17,C  16,C  12,O  15)    -55.3146         0.009493   
    131. D(O  20,C  16,C  12,H  13)    -61.0355         0.009493   
    132. D(O  20,C  16,C  12,H  14)   -177.8560         0.009493   
    133. D(O  20,C  16,C  12,O  15)     60.0211         0.009493 C 
    134. D(C  17,C  16,C  12,H  14)     66.8083         0.009493   
    135. D(H  21,C  16,C  12,H  13)     56.3997         0.009493   
    136. D(H  21,C  16,C  12,O  15)    177.4562         0.009493   
    137. D(C  18,C  17,C  16,C  12)     79.0817         0.010845   
    138. D(C  18,C  17,C  16,O  20)    -40.0205         0.010845 C 
    139. D(C  18,C  17,C  16,H  21)   -156.5735         0.010845   
    140. D(O  22,C  17,C  16,C  12)   -163.6049         0.010845   
    141. D(O  22,C  17,C  16,O  20)     77.2930         0.010845   
    142. D(O  22,C  17,C  16,H  21)    -39.2600         0.010845   
    143. D(H  23,C  17,C  16,C  12)    -42.1365         0.010845   
    144. D(H  23,C  17,C  16,O  20)   -161.2386         0.010845   
    145. D(H  23,C  17,C  16,H  21)     82.2084         0.010845   
    146. D(H  24,C  18,C  17,H  23)    -81.9540         0.009882   
    147. D(C  19,C  18,C  17,O  22)    -81.8812         0.009882   
    148. D(C  19,C  18,C  17,H  23)    156.4851         0.009882   
    149. D(H  24,C  18,C  17,C  16)    156.5617         0.009882   
    150. D(C  19,C  18,C  17,C  16)     35.0009         0.009882 C 
    151. D(H  24,C  18,C  17,O  22)     39.6797         0.009882   
    152. D(H  25,C  18,C  17,C  16)    -83.0564         0.009882   
    153. D(H  25,C  18,C  17,O  22)    160.0615         0.009882   
    154. D(H  25,C  18,C  17,H  23)     38.4279         0.009882   
    155. D(H  27,C  19,C  18,H  25)   -143.4552         0.009775   
    156. D(O  20,C  19,C  18,H  24)   -139.9910         0.009775   
    157. D(O  20,C  19,C  18,H  25)     99.5302         0.009775   
    158. D(H  26,C  19,C  18,C  17)   -137.7837         0.009775   
    159. D(H  26,C  19,C  18,H  24)    100.3904         0.009775   
    160. D(H  26,C  19,C  18,H  25)    -20.0883         0.009775   
    161. D(H  27,C  19,C  18,C  17)     98.8493         0.009775   
    162. D(O  20,C  19,C  18,C  17)    -18.1652         0.009775 C 
    163. D(H  27,C  19,C  18,H  24)    -22.9765         0.009775   
    164. D(C  19,O  20,C  16,C  12)    -90.0495         0.014089   
    165. D(C  19,O  20,C  16,C  17)     29.6317         0.014089 C 
    166. D(C  19,O  20,C  16,H  21)    151.1938         0.014089   
    167. D(C  16,O  20,C  19,C  18)     -6.9193         0.012815 C 
    168. D(C  16,O  20,C  19,H  26)    114.8520         0.012815   
    169. D(C  16,O  20,C  19,H  27)   -127.4028         0.012815   
    170. D(H  28,O  22,C  17,C  16)    -55.7833         0.007795   
    171. D(H  28,O  22,C  17,C  18)     55.7751         0.007795   
    172. D(H  28,O  22,C  17,H  23)    179.9513         0.007795   
    -----------------------------------------------------------------

Number of atoms                         .... 29
Number of degrees of freedom            .... 172

         *************************************************************
         *                GEOMETRY OPTIMIZATION CYCLE   1            *
         *************************************************************
---------------------------------
CARTESIAN COORDINATES (ANGSTROEM)
---------------------------------
  C    -21.048025   26.222130   46.250913
  C    -20.360938   27.558105   45.944055
  C    -20.328806   28.221890   47.341145
  C    -20.109852   27.021749   48.295980
  O    -20.472997   25.806874   47.534825
  H    -20.833132   25.428177   45.532828
  H    -19.343969   27.382077   45.575982
  H    -20.897925   28.157249   45.201162
  H    -19.542738   28.977811   47.434207
  H    -21.288756   28.709938   47.548263
  H    -20.732800   27.081682   49.195021
  H    -19.063846   26.912623   48.596912
  C    -23.220934   25.764229   47.645086
  H    -23.253897   24.674218   47.530181
  H    -22.616899   25.997328   48.532036
  O    -22.586013   26.394163   46.375014
  C    -24.664980   26.272114   47.910056
  C    -24.711136   27.803116   47.992914
  C    -24.681199   28.197976   46.496877
  C    -25.496092   27.068830   45.817993
  O    -25.538963   25.944914   46.779100
  H    -25.069917   25.761151   48.785107
  O    -26.039173   28.261042   48.653889
  H    -23.877172   28.229254   48.560863
  H    -25.106303   29.189915   46.310790
  H    -23.647204   28.203048   46.128862
  H    -25.040070   26.725790   44.883018
  H    -26.531125   27.362705   45.619979
  H    -26.888139   27.845903   48.099940

----------------------------
CARTESIAN COORDINATES (A.U.)
----------------------------
  NO LB      ZA    FRAG     MASS         X           Y           Z
   0 C     6.0000    0    12.011  -39.775002   49.552644   87.401559
   1 C     6.0000    0    12.011  -38.476596   52.077272   86.821682
   2 C     6.0000    0    12.011  -38.415876   53.331643   89.461798
   3 C     6.0000    0    12.011  -38.002113   51.063705   91.266176
   4 O     8.0000    0    15.999  -38.688357   48.767924   89.827801
   5 H     1.0000    0     1.008  -39.368914   48.052291   86.044575
   6 H     1.0000    0     1.008  -36.554804   51.744627   86.126124
   7 H     1.0000    0     1.008  -39.491355   53.209489   85.417817
   8 H     1.0000    0     1.008  -36.930423   54.760127   89.637661
   9 H     1.0000    0     1.008  -40.229919   54.253920   89.853196
  10 H     1.0000    0     1.008  -39.179315   51.176961   92.965116
  11 H     1.0000    0     1.008  -36.025448   50.857487   91.834855
  12 C     6.0000    0    12.011  -43.881206   48.687337   90.036165
  13 H     1.0000    0     1.008  -43.943498   46.627514   89.819026
  14 H     1.0000    0     1.008  -42.739744   49.127831   91.712256
  15 O     8.0000    0    15.999  -42.681378   49.877739   87.636076
  16 C     6.0000    0    12.011  -46.610058   49.647101   90.536885
  17 C     6.0000    0    12.011  -46.697279   52.540274   90.693464
  18 C     6.0000    0    12.011  -46.640706   53.286453   87.866364
  19 C     6.0000    0    12.011  -48.180632   51.152675   86.583458
  20 O     8.0000    0    15.999  -48.261646   49.028782   88.399687
  21 H     1.0000    0     1.008  -47.375277   48.681520   92.190491
  22 O     8.0000    0    15.999  -49.206907   53.405630   91.942526
  23 H     1.0000    0     1.008  -45.121316   53.345560   91.766732
  24 H     1.0000    0     1.008  -47.444037   55.160946   87.514711
  25 H     1.0000    0     1.008  -44.686740   53.296036   87.170917
  26 H     1.0000    0     1.008  -47.318874   50.504423   84.816613
  27 H     1.0000    0     1.008  -50.136561   51.708019   86.209267
  28 H     1.0000    0     1.008  -50.811218   52.621131   90.895713

--------------------------------
INTERNAL COORDINATES (ANGSTROEM)
--------------------------------
 C      0   0   0     0.000000000000     0.00000000     0.00000000
 C      1   0   0     1.533334275362     0.00000000     0.00000000
 C      2   1   0     1.547103422529   101.67907390     0.00000000
 C      3   2   1     1.549188819996   103.12737509    35.02687180
 O      1   2   3     1.466801281701   104.24948604   319.98542309
 H      1   2   3     1.091872245274   114.43876658   203.42640133
 H      2   1   3     1.095759553917   110.06782188   117.34000099
 H      2   1   3     1.095088580892   113.12442239   238.72597460
 H      3   2   1     1.094523183857   112.83161078   156.54780790
 H      3   2   1     1.096628013503   110.07982737   276.98070077
 H      4   3   2     1.095413164062   112.52534669   222.25678475
 H      4   3   2     1.093891219455   112.45670684    98.86663270
 C      1   2   3     2.622008581222   129.04709754    47.32982269
 H     13   1   2     1.096546396647    98.21084905   179.36127773
 H     13   1   2     1.098122943937    86.36139750   287.23213123
 O      1   2   3     1.552547583812   111.30349807    79.08752829
 C     13   1   2     1.553520196200   143.50409249    42.46837385
 C     17  13   1     1.533938069154   111.31388312   318.17862230
 C     18  17  13     1.547559691902   101.64598135    79.08145804
 C     19  18  17     1.549163322571   103.14908002    35.00088649
 O     17  13   1     1.466276235912   110.45948859    73.51392001
 H     17  13   1     1.091224541513   109.18566061   190.94971454
 O     18  17  13     1.552504106275   110.06778116   196.39504579
 H     18  17  13     1.095288089956   113.16744933   317.86341929
 H     19  18  17     1.095118715026   112.82198627   156.56174374
 H     19  18  17     1.097544987688   110.09322475   276.94364461
 H     20  19  18     1.095358388839   112.54023251   222.21625804
 H     20  19  18     1.094013254033   112.40734778    98.84933054
 H     23  18  17     1.095418641433   109.62592988   304.21659579

---------------------------
INTERNAL COORDINATES (A.U.)
---------------------------
 C      0   0   0     0.000000000000     0.00000000     0.00000000
 C      1   0   0     2.897581852189     0.00000000     0.00000000
 C      2   1   0     2.923601769431   101.67907390     0.00000000
 C      3   2   1     2.927542599525   103.12737509    35.02687180
 O      1   2   3     2.771852715300   104.24948604   319.98542309
 H      1   2   3     2.063339516798   114.43876658   203.42640133
 H      2   1   3     2.070685465531   110.06782188   117.34000099
 H      2   1   3     2.069417510270   113.12442239   238.72597460
 H      3   2   1     2.068349064717   112.83161078   156.54780790
 H      3   2   1     2.072326616307   110.07982737   276.98070077
 H      4   3   2     2.070030883569   112.52534669   222.25678475
 H      4   3   2     2.067154825070   112.45670684    98.86663270
 C      1   2   3     4.954878139300   129.04709754    47.32982269
 H     13   1   2     2.072172382801    98.21084905   179.36127773
 H     13   1   2     2.075151625416    86.36139750   287.23213123
 O      1   2   3     2.933889743286   111.30349807    79.08752829
 C     13   1   2     2.935727714333   143.50409249    42.46837385
 C     17  13   1     2.898722857097   111.31388312   318.17862230
 C     18  17  13     2.924463993590   101.64598135    79.08145804
 C     19  18  17     2.927494416375   103.14908002    35.00088649
 O     17  13   1     2.770860522550   110.45948859    73.51392001
 H     17  13   1     2.062115534073   109.18566061   190.94971454
 O     18  17  13     2.933807582647   110.06778116   196.39504579
 H     18  17  13     2.069794527763   113.16744933   317.86341929
 H     19  18  17     2.069474455531   112.82198627   156.56174374
 H     19  18  17     2.074059446389   110.09322475   276.94364461
 H     20  19  18     2.069927373399   112.54023251   222.21625804
 H     20  19  18     2.067385437002   112.40734778    98.84933054
 H     23  18  17     2.070041234301   109.62592988   304.21659579

---------------------
BASIS SET INFORMATION
---------------------
There are 3 groups of distinct atoms

 Group   1 Type C   : 10s4p contracted to 3s2p pattern {631/31}
 Group   2 Type O   : 10s4p contracted to 3s2p pattern {631/31}
 Group   3 Type H   : 4s contracted to 2s pattern {31}

Atom   0C    basis set group =>   1
Atom   1C    basis set group =>   1
Atom   2C    basis set group =>   1
Atom   3C    basis set group =>   1
Atom   4O    basis set group =>   2
Atom   5H    basis set group =>   3
Atom   6H    basis set group =>   3
Atom   7H    basis set group =>   3
Atom   8H    basis set group =>   3
Atom   9H    basis set group =>   3
Atom  10H    basis set group =>   3
Atom  11H    basis set group =>   3
Atom  12C    basis set group =>   1
Atom  13H    basis set group =>   3
Atom  14H    basis set group =>   3
Atom  15O    basis set group =>   2
Atom  16C    basis set group =>   1
Atom  17C    basis set group =>   1
Atom  18C    basis set group =>   1
Atom  19C    basis set group =>   1
Atom  20O    basis set group =>   2
Atom  21H    basis set group =>   3
Atom  22O    basis set group =>   2
Atom  23H    basis set group =>   3
Atom  24H    basis set group =>   3
Atom  25H    basis set group =>   3
Atom  26H    basis set group =>   3
Atom  27H    basis set group =>   3
Atom  28H    basis set group =>   3
------------------------------------------------------------------------------
                           ORCA GTO INTEGRAL CALCULATION
------------------------------------------------------------------------------

                         BASIS SET STATISTICS AND STARTUP INFO

 # of primitive gaussian shells          ...  246
 # of primitive gaussian functions       ...  350
 # of contracted shells                  ...   97
 # of contracted basis functions         ...  149
 Highest angular momentum                ...    1
 Maximum contraction depth               ...    6
 Integral package used                   ... LIBINT
 Integral threshhold            Thresh   ...  2.500e-11
 Primitive cut-off              TCut     ...  2.500e-12


------------------------------ INTEGRAL EVALUATION ----------------------------


 * One electron integrals 
 Pre-screening matrix                    ... done
 Shell pair data                         ... done (   0.003 sec)

-------------------------------------------------------------------------------
                                 ORCA SCF
-------------------------------------------------------------------------------

------------
SCF SETTINGS
------------
Hamiltonian:
 Density Functional     Method          .... DFT(GTOs)
 Exchange Functional    Exchange        .... B88
   X-Alpha parameter    XAlpha          ....  0.666667
   Becke's b parameter  XBeta           ....  0.004200
 Correlation Functional Correlation     .... LYP
 LDA part of GGA corr.  LDAOpt          .... VWN-5
 Gradients option       PostSCFGGA      .... off
 Hybrid DFT is turned on
   Fraction HF Exchange ScalHFX         ....  0.200000
   Scaling of DF-GGA-X  ScalDFX         ....  0.720000
   Scaling of DF-GGA-C  ScalDFC         ....  0.810000
   Scaling of DF-LDA-C  ScalLDAC        ....  1.000000
   Perturbative correction              ....  0.000000
   Density functional embedding theory  .... OFF
   NL short-range parameter             ....  4.800000


General Settings:
 Integral files         IntName         .... project_8048/ensemble_345_165
 Hartree-Fock type      HFTyp           .... RHF
 Total Charge           Charge          ....    0
 Multiplicity           Mult            ....    1
 Number of Electrons    NEL             ....  102
 Basis Dimension        Dim             ....  149
 Nuclear Repulsion      ENuc            ....    889.5468167798 Eh

Convergence Acceleration:
 DIIS                   CNVDIIS         .... on
   Start iteration      DIISMaxIt       ....    12
   Startup error        DIISStart       ....  0.200000
   # of expansion vecs  DIISMaxEq       ....     5
   Bias factor          DIISBfac        ....   1.050
   Max. coefficient     DIISMaxC        ....  10.000
 Newton-Raphson         CNVNR           .... off
 SOSCF                  CNVSOSCF        .... on
   Start iteration      SOSCFMaxIt      ....   150
   Startup grad/error   SOSCFStart      ....  0.003300
 Level Shifting         CNVShift        .... on
   Level shift para.    LevelShift      ....    0.2500
   Turn off err/grad.   ShiftErr        ....    0.0010
 Zerner damping         CNVZerner       .... off
 Static damping         CNVDamp         .... on
   Fraction old density DampFac         ....    0.7000
   Max. Damping (<1)    DampMax         ....    0.9800
   Min. Damping (>=0)   DampMin         ....    0.0000
   Turn off err/grad.   DampErr         ....    0.1000
 Fernandez-Rico         CNVRico         .... off

SCF Procedure:
 Maximum # iterations   MaxIter         ....   125
 SCF integral mode      SCFMode         .... Direct
   Integral package                     .... LIBINT
 Reset frequency        DirectResetFreq ....    20
 Integral Threshold     Thresh          ....  2.500e-11 Eh
 Primitive CutOff       TCut            ....  2.500e-12 Eh

Convergence Tolerance:
 Convergence Check Mode ConvCheckMode   .... Total+1el-Energy
 Convergence forced     ConvForced      .... 0
 Energy Change          TolE            ....  1.000e-08 Eh
 1-El. energy change                    ....  1.000e-05 Eh
 Orbital Gradient       TolG            ....  1.000e-05
 Orbital Rotation angle TolX            ....  1.000e-05
 DIIS Error             TolErr          ....  5.000e-07


Diagonalization of the overlap matrix:
Smallest eigenvalue                        ... 4.313e-03
Time for diagonalization                   ...    0.008 sec
Threshold for overlap eigenvalues          ... 1.000e-08
Number of eigenvalues below threshold      ... 0
Time for construction of square roots      ...    0.130 sec
Total time needed                          ...    0.138 sec

-------------------
DFT GRID GENERATION
-------------------

General Integration Accuracy     IntAcc      ...  4.340
Radial Grid Type                 RadialGrid  ... Gauss-Chebyshev
Angular Grid (max. acc.)         AngularGrid ... Lebedev-110
Angular grid pruning method      GridPruning ... 3 (G Style)
Weight generation scheme         WeightScheme... Becke
Basis function cutoff            BFCut       ...    1.0000e-11
Integration weight cutoff        WCut        ...    1.0000e-14
Grids for H and He will be reduced by one unit

# of grid points (after initial pruning)     ...  34472 (   0.0 sec)
# of grid points (after weights+screening)   ...  30853 (   0.5 sec)
nearest neighbour list constructed           ...    0.0 sec
Grid point re-assignment to atoms done       ...    0.0 sec
Grid point division into batches done        ...    0.0 sec
Reduced shell lists constructed in    0.6 sec

Total number of grid points                  ...    30853
Total number of batches                      ...      497
Average number of points per batch           ...       62
Average number of grid points per atom       ...     1064
Average number of shells per batch           ...    61.65 (63.55%)
Average number of basis functions per batch  ...    99.93 (67.07%)
Average number of large shells per batch     ...    43.91 (71.22%)
Average number of large basis fcns per batch ...    72.80 (72.85%)
Maximum spatial batch extension              ...  19.44, 20.09, 19.79 au
Average spatial batch extension              ...   3.14,  3.49,  3.28 au

Time for grid setup =    1.291 sec

------------------------------
INITIAL GUESS: MODEL POTENTIAL
------------------------------
Loading Hartree-Fock densities                     ... done
Calculating cut-offs                               ... done
Setting up the integral package                    ... done
Initializing the effective Hamiltonian             ... done
Starting the Coulomb interaction                   ... done (   0.6 sec)
Reading the grid                                   ... done
Mapping shells                                     ... done
Starting the XC term evaluation                    ... done (   0.7 sec)
  promolecular density results
     # of electrons  =    101.991370137
     EX              =    -83.664967778
     EC              =     -3.461442658
     EX+EC           =    -87.126410435
Transforming the Hamiltonian                       ... done (   0.0 sec)
Diagonalizing the Hamiltonian                      ... done (   0.0 sec)
Back transforming the eigenvectors                 ... done (   0.0 sec)
Now organizing SCF variables                       ... done
                      ------------------
                      INITIAL GUESS DONE (   2.9 sec)
                      ------------------
--------------
SCF ITERATIONS
--------------
ITER       Energy         Delta-E        Max-DP      RMS-DP      [F,P]     Damp
               ***  Starting incremental Fock matrix formation  ***
  0   -652.5376944314   0.000000000000 0.07401996  0.00299143  0.2304597 0.7000
  1   -652.6775194386  -0.139825007188 0.04026914  0.00204685  0.0925291 0.7000
                               ***Turning on DIIS***
  2   -652.7300665130  -0.052547074461 0.05489759  0.00328231  0.0301687 0.0000
  3   -652.8165155581  -0.086449045041 0.03004461  0.00136727  0.0520498 0.0000
  4   -652.8340678721  -0.017552314028 0.00941774  0.00041558  0.0081312 0.0000
  5   -652.8349771928  -0.000909320657 0.00274129  0.00013038  0.0040826 0.0000
                      *** Initiating the SOSCF procedure ***
                           *** Shutting down DIIS ***
                      *** Re-Reading the Fockian *** 
                      *** Removing any level shift *** 
ITER      Energy       Delta-E        Grad      Rot      Max-DP    RMS-DP
  6   -652.83505323  -0.0000760381  0.000217  0.000217  0.000924  0.000054
               *** Restarting incremental Fock matrix formation ***
  7   -652.83505594  -0.0000027095  0.000113  0.000228  0.001039  0.000030
  8   -652.83505413   0.0000018078  0.000193  0.000174  0.000624  0.000019
  9   -652.83505715  -0.0000030195  0.000025  0.000050  0.000224  0.000007
 10   -652.83505707   0.0000000774  0.000037  0.000028  0.000142  0.000004
 11   -652.83505722  -0.0000001409  0.000005  0.000007  0.000034  0.000001
 12   -652.83505721   0.0000000018  0.000009  0.000004  0.000021  0.000001
                  ***Gradient check signals convergence***
              ***Rediagonalizing the Fockian in SOSCF/NRSCF***

               *****************************************************
               *                     SUCCESS                       *
               *           SCF CONVERGED AFTER  13 CYCLES          *
               *****************************************************

Setting up the final grid:

General Integration Accuracy     IntAcc      ...  4.670
Radial Grid Type                 RadialGrid  ... Gauss-Chebyshev
Angular Grid (max. acc.)         AngularGrid ... Lebedev-302
Angular grid pruning method      GridPruning ... 3 (G Style)
Weight generation scheme         WeightScheme... Becke
Basis function cutoff            BFCut       ...    1.0000e-11
Integration weight cutoff        WCut        ...    1.0000e-14
Grids for H and He will be reduced by one unit

# of grid points (after initial pruning)     ... 135060 (   0.1 sec)
# of grid points (after weights+screening)   ... 118306 (   2.2 sec)
nearest neighbour list constructed           ...    0.0 sec
Grid point re-assignment to atoms done       ...    0.0 sec
Grid point division into batches done        ...    0.5 sec
Reduced shell lists constructed in    2.4 sec

Total number of grid points                  ...   118306
Total number of batches                      ...     1862
Average number of points per batch           ...       63
Average number of grid points per atom       ...     4080
Average number of shells per batch           ...    56.45 (58.20%)
Average number of basis functions per batch  ...    91.75 (61.58%)
Average number of large shells per batch     ...    39.30 (69.62%)
Average number of large basis fcns per batch ...    65.35 (71.23%)
Maximum spatial batch extension              ...  18.31, 22.50, 16.76 au
Average spatial batch extension              ...   2.11,  2.24,  2.15 au

Final grid set up in   10.0 sec
Final integration                            ... done (   5.9 sec)
Change in XC energy                          ...    -0.000145667
Integrated number of electrons               ...   101.999959892
Previous integrated no of electrons          ...   102.001351062

----------------
TOTAL SCF ENERGY
----------------

Total Energy       :         -652.83520288 Eh          -17764.54900 eV

Components:
Nuclear Repulsion  :          889.54681678 Eh           24205.79948 eV
Electronic Energy  :        -1542.38201966 Eh          -41970.34849 eV
One Electron Energy:        -2657.00437024 Eh          -72300.76461 eV
Two Electron Energy:         1114.62235058 Eh           30330.41613 eV

Virial components:
Potential Energy   :        -1301.78418467 Eh          -35423.34855 eV
Kinetic Energy     :          648.94898179 Eh           17658.79955 eV
Virial Ratio       :            2.00598848


DFT components:
N(Alpha)           :       50.999979945778 electrons
N(Beta)            :       50.999979945778 electrons
N(Total)           :      101.999959891556 electrons
E(X)               :      -67.595233778741 Eh       
E(C)               :       -4.072399512383 Eh       
E(XC)              :      -71.667633291125 Eh       
DFET-embed. en.    :        0.000000000000 Eh       

---------------
SCF CONVERGENCE
---------------

  Last Energy change         ...   -2.3553e-09  Tolerance :   1.0000e-08
  Last MAX-Density change    ...    2.8836e-06  Tolerance :   1.0000e-07
  Last RMS-Density change    ...    1.0380e-07  Tolerance :   5.0000e-09
  Last Orbital Gradient      ...    3.3461e-07  Tolerance :   1.0000e-05
  Last Orbital Rotation      ...    6.5788e-07  Tolerance :   1.0000e-05

             **** THE GBW FILE WAS UPDATED (project_8048/ensemble_345_165.gbw) ****
             **** DENSITY FILE WAS UPDATED (project_8048/ensemble_345_165.scfp) ****
             **** ENERGY FILE WAS UPDATED (project_8048/ensemble_345_165.en.tmp) ****
             **** THE GBW FILE WAS UPDATED (project_8048/ensemble_345_165.gbw) ****
             **** DENSITY FILE WAS UPDATED (project_8048/ensemble_345_165.scfp) ****
----------------
ORBITAL ENERGIES
----------------

  NO   OCC          E(Eh)            E(eV) 
   0   2.0000     -19.159986      -521.3697 
   1   2.0000     -19.146941      -521.0147 
   2   2.0000     -19.137055      -520.7458 
   3   2.0000     -19.132207      -520.6138 
   4   2.0000     -10.291876      -280.0562 
   5   2.0000     -10.238821      -278.6125 
   6   2.0000     -10.238624      -278.6071 
   7   2.0000     -10.236204      -278.5413 
   8   2.0000     -10.231260      -278.4067 
   9   2.0000     -10.217669      -278.0369 
  10   2.0000     -10.199886      -277.5530 
  11   2.0000     -10.198759      -277.5223 
  12   2.0000     -10.172135      -276.7979 
  13   2.0000      -1.047920       -28.5154 
  14   2.0000      -1.019593       -27.7445 
  15   2.0000      -0.964658       -26.2497 
  16   2.0000      -0.956031       -26.0149 
  17   2.0000      -0.798607       -21.7312 
  18   2.0000      -0.774446       -21.0737 
  19   2.0000      -0.757570       -20.6145 
  20   2.0000      -0.738614       -20.0987 
  21   2.0000      -0.664962       -18.0945 
  22   2.0000      -0.609743       -16.5919 
  23   2.0000      -0.598134       -16.2760 
  24   2.0000      -0.586543       -15.9606 
  25   2.0000      -0.567347       -15.4383 
  26   2.0000      -0.517673       -14.0866 
  27   2.0000      -0.506020       -13.7695 
  28   2.0000      -0.495908       -13.4943 
  29   2.0000      -0.484907       -13.1950 
  30   2.0000      -0.459613       -12.5067 
  31   2.0000      -0.456814       -12.4305 
  32   2.0000      -0.438830       -11.9412 
  33   2.0000      -0.423653       -11.5282 
  34   2.0000      -0.418708       -11.3936 
  35   2.0000      -0.407726       -11.0948 
  36   2.0000      -0.401376       -10.9220 
  37   2.0000      -0.380316       -10.3489 
  38   2.0000      -0.375594       -10.2204 
  39   2.0000      -0.368625       -10.0308 
  40   2.0000      -0.366759        -9.9800 
  41   2.0000      -0.357641        -9.7319 
  42   2.0000      -0.353625        -9.6226 
  43   2.0000      -0.338759        -9.2181 
  44   2.0000      -0.318306        -8.6615 
  45   2.0000      -0.306616        -8.3434 
  46   2.0000      -0.298358        -8.1187 
  47   2.0000      -0.267891        -7.2897 
  48   2.0000      -0.258629        -7.0377 
  49   2.0000      -0.254137        -6.9154 
  50   2.0000      -0.237013        -6.4494 
  51   0.0000       0.046478         1.2647 
  52   0.0000       0.050051         1.3620 
  53   0.0000       0.069989         1.9045 
  54   0.0000       0.090154         2.4532 
  55   0.0000       0.096124         2.6157 
  56   0.0000       0.108121         2.9421 
  57   0.0000       0.114792         3.1236 
  58   0.0000       0.126558         3.4438 
  59   0.0000       0.131693         3.5836 
  60   0.0000       0.137711         3.7473 
  61   0.0000       0.147516         4.0141 
  62   0.0000       0.150827         4.1042 
  63   0.0000       0.153981         4.1900 
  64   0.0000       0.155410         4.2289 
  65   0.0000       0.160120         4.3571 
  66   0.0000       0.180140         4.9018 
  67   0.0000       0.183931         5.0050 
  68   0.0000       0.187033         5.0894 
  69   0.0000       0.190598         5.1864 
  70   0.0000       0.201329         5.4784 
  71   0.0000       0.204539         5.5658 
  72   0.0000       0.219915         5.9842 
  73   0.0000       0.239049         6.5048 
  74   0.0000       0.240723         6.5504 
  75   0.0000       0.249718         6.7952 
  76   0.0000       0.266811         7.2603 
  77   0.0000       0.270200         7.3525 
  78   0.0000       0.280601         7.6356 
  79   0.0000       0.295748         8.0477 
  80   0.0000       0.311946         8.4885 
  81   0.0000       0.508004        13.8235 
  82   0.0000       0.537584        14.6284 
  83   0.0000       0.550893        14.9906 
  84   0.0000       0.558871        15.2077 
  85   0.0000       0.561353        15.2752 
  86   0.0000       0.568077        15.4582 
  87   0.0000       0.572918        15.5899 
  88   0.0000       0.574793        15.6409 
  89   0.0000       0.596849        16.2411 
  90   0.0000       0.601037        16.3551 
  91   0.0000       0.606347        16.4996 
  92   0.0000       0.621788        16.9197 
  93   0.0000       0.629947        17.1417 
  94   0.0000       0.632091        17.2001 
  95   0.0000       0.636858        17.3298 
  96   0.0000       0.653323        17.7778 
  97   0.0000       0.664049        18.0697 
  98   0.0000       0.677878        18.4460 
  99   0.0000       0.709661        19.3109 
 100   0.0000       0.722384        19.6571 
 101   0.0000       0.763046        20.7635 
 102   0.0000       0.781532        21.2666 
 103   0.0000       0.810258        22.0482 
 104   0.0000       0.815762        22.1980 
 105   0.0000       0.827780        22.5251 
 106   0.0000       0.839838        22.8532 
 107   0.0000       0.851305        23.1652 
 108   0.0000       0.858245        23.3540 
 109   0.0000       0.871844        23.7241 
 110   0.0000       0.876985        23.8640 
 111   0.0000       0.880262        23.9531 
 112   0.0000       0.901680        24.5360 
 113   0.0000       0.912185        24.8218 
 114   0.0000       0.921786        25.0831 
 115   0.0000       0.932177        25.3658 
 116   0.0000       0.939694        25.5704 
 117   0.0000       0.949189        25.8287 
 118   0.0000       0.952270        25.9126 
 119   0.0000       0.967730        26.3333 
 120   0.0000       0.977571        26.6011 
 121   0.0000       0.983526        26.7631 
 122   0.0000       0.999472        27.1970 
 123   0.0000       1.042946        28.3800 
 124   0.0000       1.050937        28.5975 
 125   0.0000       1.075797        29.2739 
 126   0.0000       1.097991        29.8778 
 127   0.0000       1.117071        30.3970 
 128   0.0000       1.121944        30.5296 
 129   0.0000       1.179886        32.1063 
 130   0.0000       1.217346        33.1257 
 131   0.0000       1.229832        33.4654 
 132   0.0000       1.288293        35.0562 
 133   0.0000       1.325643        36.0726 
 134   0.0000       1.332405        36.2566 
 135   0.0000       1.350711        36.7547 
 136   0.0000       1.378077        37.4994 
 137   0.0000       1.424404        38.7600 
 138   0.0000       1.429843        38.9080 
 139   0.0000       1.486197        40.4415 
 140   0.0000       1.491146        40.5762 
 141   0.0000       1.517537        41.2943 
 142   0.0000       1.620393        44.0931 
 143   0.0000       1.707789        46.4713 
 144   0.0000       1.760272        47.8994 
 145   0.0000       1.853215        50.4285 
 146   0.0000       1.930277        52.5255 
 147   0.0000       2.058225        56.0071 
 148   0.0000       2.155331        58.6495 

                    ********************************
                    * MULLIKEN POPULATION ANALYSIS *
                    ********************************

-----------------------
MULLIKEN ATOMIC CHARGES
-----------------------
   0 C :    0.295449
   1 C :   -0.269444
   2 C :   -0.302774
   3 C :   -0.015366
   4 O :   -0.508149
   5 H :    0.163047
   6 H :    0.154371
   7 H :    0.161690
   8 H :    0.149401
   9 H :    0.157584
  10 H :    0.144559
  11 H :    0.151568
  12 C :   -0.002559
  13 H :    0.159180
  14 H :    0.140675
  15 O :   -0.538653
  16 C :    0.057561
  17 C :    0.074810
  18 C :   -0.292878
  19 C :   -0.015158
  20 O :   -0.522105
  21 H :    0.164845
  22 O :   -0.604670
  23 H :    0.141971
  24 H :    0.139222
  25 H :    0.183379
  26 H :    0.151521
  27 H :    0.130852
  28 H :    0.350070
Sum of atomic charges:   -0.0000000

--------------------------------
MULLIKEN REDUCED ORBITAL CHARGES
--------------------------------
  0 C s       :     3.232752  s :     3.232752
      pz      :     0.788978  p :     2.471799
      px      :     0.683887
      py      :     0.998935
  1 C s       :     3.309726  s :     3.309726
      pz      :     0.979903  p :     2.959718
      px      :     1.034972
      py      :     0.944844
  2 C s       :     3.318395  s :     3.318395
      pz      :     0.909070  p :     2.984379
      px      :     1.087517
      py      :     0.987791
  3 C s       :     3.265391  s :     3.265391
      pz      :     0.935307  p :     2.749975
      px      :     1.070586
      py      :     0.744082
  4 O s       :     3.945202  s :     3.945202
      pz      :     1.315396  p :     4.562947
      px      :     1.730947
      py      :     1.516604
  5 H s       :     0.836953  s :     0.836953
  6 H s       :     0.845629  s :     0.845629
  7 H s       :     0.838310  s :     0.838310
  8 H s       :     0.850599  s :     0.850599
  9 H s       :     0.842416  s :     0.842416
 10 H s       :     0.855441  s :     0.855441
 11 H s       :     0.848432  s :     0.848432
 12 C s       :     3.284535  s :     3.284535
      pz      :     0.796908  p :     2.718024
      px      :     0.903762
      py      :     1.017353
 13 H s       :     0.840820  s :     0.840820
 14 H s       :     0.859325  s :     0.859325
 15 O s       :     3.948845  s :     3.948845
      pz      :     1.521264  p :     4.589808
      px      :     1.289941
      py      :     1.778603
 16 C s       :     3.275619  s :     3.275619
      pz      :     0.877147  p :     2.666820
      px      :     0.853361
      py      :     0.936311
 17 C s       :     3.301065  s :     3.301065
      pz      :     0.918556  p :     2.624125
      px      :     0.804921
      py      :     0.900648
 18 C s       :     3.310050  s :     3.310050
      pz      :     0.902826  p :     2.982828
      px      :     1.078065
      py      :     1.001937
 19 C s       :     3.265149  s :     3.265149
      pz      :     0.917493  p :     2.750009
      px      :     1.041879
      py      :     0.790637
 20 O s       :     3.943321  s :     3.943321
      pz      :     1.312767  p :     4.578784
      px      :     1.692664
      py      :     1.573353
 21 H s       :     0.835155  s :     0.835155
 22 O s       :     3.949289  s :     3.949289
      pz      :     1.672061  p :     4.655381
      px      :     1.186518
      py      :     1.796801
 23 H s       :     0.858029  s :     0.858029
 24 H s       :     0.860778  s :     0.860778
 25 H s       :     0.816621  s :     0.816621
 26 H s       :     0.848479  s :     0.848479
 27 H s       :     0.869148  s :     0.869148
 28 H s       :     0.649930  s :     0.649930


                     *******************************
                     * LOEWDIN POPULATION ANALYSIS *
                     *******************************

----------------------
LOEWDIN ATOMIC CHARGES
----------------------
   0 C :    0.192346
   1 C :   -0.218874
   2 C :   -0.217871
   3 C :   -0.033388
   4 O :   -0.314718
   5 H :    0.111150
   6 H :    0.119745
   7 H :    0.126074
   8 H :    0.117960
   9 H :    0.114103
  10 H :    0.100759
  11 H :    0.107269
  12 C :   -0.036463
  13 H :    0.114120
  14 H :    0.104907
  15 O :   -0.369446
  16 C :    0.020205
  17 C :    0.045425
  18 C :   -0.244519
  19 C :   -0.032208
  20 O :   -0.330109
  21 H :    0.125130
  22 O :   -0.449622
  23 H :    0.114150
  24 H :    0.113603
  25 H :    0.132159
  26 H :    0.108767
  27 H :    0.093091
  28 H :    0.286256

-------------------------------
LOEWDIN REDUCED ORBITAL CHARGES
-------------------------------
  0 C s       :     2.981407  s :     2.981407
      pz      :     0.913145  p :     2.826246
      px      :     0.827567
      py      :     1.085534
  1 C s       :     2.978551  s :     2.978551
      pz      :     1.075593  p :     3.240322
      px      :     1.108608
      py      :     1.056121
  2 C s       :     2.973053  s :     2.973053
      pz      :     1.032986  p :     3.244818
      px      :     1.132481
      py      :     1.079351
  3 C s       :     2.984654  s :     2.984654
      pz      :     1.036535  p :     3.048734
      px      :     1.124757
      py      :     0.887442
  4 O s       :     3.608118  s :     3.608118
      pz      :     1.379776  p :     4.706599
      px      :     1.762005
      py      :     1.564818
  5 H s       :     0.888850  s :     0.888850
  6 H s       :     0.880255  s :     0.880255
  7 H s       :     0.873926  s :     0.873926
  8 H s       :     0.882040  s :     0.882040
  9 H s       :     0.885897  s :     0.885897
 10 H s       :     0.899241  s :     0.899241
 11 H s       :     0.892731  s :     0.892731
 12 C s       :     3.004514  s :     3.004514
      pz      :     0.913665  p :     3.031949
      px      :     1.036807
      py      :     1.081477
 13 H s       :     0.885880  s :     0.885880
 14 H s       :     0.895093  s :     0.895093
 15 O s       :     3.650998  s :     3.650998
      pz      :     1.563322  p :     4.718447
      px      :     1.349911
      py      :     1.805214
 16 C s       :     2.967723  s :     2.967723
      pz      :     0.963207  p :     3.012072
      px      :     0.988211
      py      :     1.060654
 17 C s       :     2.974975  s :     2.974975
      pz      :     1.034980  p :     2.979600
      px      :     0.905920
      py      :     1.038700
 18 C s       :     2.983791  s :     2.983791
      pz      :     1.034812  p :     3.260728
      px      :     1.138553
      py      :     1.087362
 19 C s       :     2.983797  s :     2.983797
      pz      :     1.010010  p :     3.048412
      px      :     1.120722
      py      :     0.917680
 20 O s       :     3.601355  s :     3.601355
      pz      :     1.377817  p :     4.728754
      px      :     1.731169
      py      :     1.619768
 21 H s       :     0.874870  s :     0.874870
 22 O s       :     3.692046  s :     3.692046
      pz      :     1.699285  p :     4.757577
      px      :     1.246220
      py      :     1.812072
 23 H s       :     0.885850  s :     0.885850
 24 H s       :     0.886397  s :     0.886397
 25 H s       :     0.867841  s :     0.867841
 26 H s       :     0.891233  s :     0.891233
 27 H s       :     0.906909  s :     0.906909
 28 H s       :     0.713744  s :     0.713744


                      *****************************
                      * MAYER POPULATION ANALYSIS *
                      *****************************

  NA   - Mulliken gross atomic population
  ZA   - Total nuclear charge
  QA   - Mulliken gross atomic charge
  VA   - Mayer's total valence
  BVA  - Mayer's bonded valence
  FA   - Mayer's free valence

  ATOM       NA         ZA         QA         VA         BVA        FA
  0 C      5.7046     6.0000     0.2954     3.6309     3.6309    -0.0000
  1 C      6.2694     6.0000    -0.2694     3.7187     3.7187    -0.0000
  2 C      6.3028     6.0000    -0.3028     3.7586     3.7586    -0.0000
  3 C      6.0154     6.0000    -0.0154     3.6526     3.6526     0.0000
  4 O      8.5081     8.0000    -0.5081     1.8072     1.8072    -0.0000
  5 H      0.8370     1.0000     0.1630     0.9244     0.9244    -0.0000
  6 H      0.8456     1.0000     0.1544     0.9306     0.9306    -0.0000
  7 H      0.8383     1.0000     0.1617     0.9361     0.9361    -0.0000
  8 H      0.8506     1.0000     0.1494     0.9360     0.9360     0.0000
  9 H      0.8424     1.0000     0.1576     0.9356     0.9356     0.0000
 10 H      0.8554     1.0000     0.1446     0.9273     0.9273     0.0000
 11 H      0.8484     1.0000     0.1516     0.9286     0.9286    -0.0000
 12 C      6.0026     6.0000    -0.0026     3.6059     3.6059    -0.0000
 13 H      0.8408     1.0000     0.1592     0.9271     0.9271    -0.0000
 14 H      0.8593     1.0000     0.1407     0.9290     0.9290     0.0000
 15 O      8.5387     8.0000    -0.5387     1.7799     1.7799    -0.0000
 16 C      5.9424     6.0000     0.0576     3.6157     3.6157     0.0000
 17 C      5.9252     6.0000     0.0748     3.6565     3.6565     0.0000
 18 C      6.2929     6.0000    -0.2929     3.6833     3.6833    -0.0000
 19 C      6.0152     6.0000    -0.0152     3.6691     3.6691    -0.0000
 20 O      8.5221     8.0000    -0.5221     1.7649     1.7649     0.0000
 21 H      0.8352     1.0000     0.1648     0.9340     0.9340    -0.0000
 22 O      8.6047     8.0000    -0.6047     1.7512     1.7512    -0.0000
 23 H      0.8580     1.0000     0.1420     0.9424     0.9424     0.0000
 24 H      0.8608     1.0000     0.1392     0.9398     0.9398    -0.0000
 25 H      0.8166     1.0000     0.1834     0.9475     0.9475     0.0000
 26 H      0.8485     1.0000     0.1515     0.9317     0.9317    -0.0000
 27 H      0.8691     1.0000     0.1309     0.9289     0.9289    -0.0000
 28 H      0.6499     1.0000     0.3501     0.8485     0.8485     0.0000

  Mayer bond orders larger than 0.100000
B(  0-C ,  1-C ) :   0.9367 B(  0-C ,  4-O ) :   0.9005 B(  0-C ,  5-H ) :   0.9230 
B(  0-C , 15-O ) :   0.8306 B(  1-C ,  2-C ) :   0.9529 B(  1-C ,  6-H ) :   0.9323 
B(  1-C ,  7-H ) :   0.9337 B(  2-C ,  3-C ) :   0.9516 B(  2-C ,  8-H ) :   0.9439 
B(  2-C ,  9-H ) :   0.9424 B(  3-C ,  4-O ) :   0.8336 B(  3-C , 10-H ) :   0.9292 
B(  3-C , 11-H ) :   0.9397 B( 12-C , 13-H ) :   0.9237 B( 12-C , 14-H ) :   0.9010 
B( 12-C , 15-O ) :   0.8372 B( 12-C , 16-C ) :   0.8956 B( 16-C , 17-C ) :   0.9072 
B( 16-C , 20-O ) :   0.8728 B( 16-C , 21-H ) :   0.9222 B( 17-C , 18-C ) :   0.9282 
B( 17-C , 22-O ) :   0.8828 B( 17-C , 23-H ) :   0.9328 B( 18-C , 19-C ) :   0.9458 
B( 18-C , 24-H ) :   0.9374 B( 18-C , 25-H ) :   0.9010 B( 19-C , 20-O ) :   0.8412 
B( 19-C , 26-H ) :   0.9327 B( 19-C , 27-H ) :   0.9371 B( 22-O , 28-H ) :   0.8079 


-------
TIMINGS
-------

Total SCF time: 0 days 0 hours 3 min 33 sec 

Total time                  ....     213.903 sec
Sum of individual times     ....     203.096 sec  ( 94.9%)

Fock matrix formation       ....     188.510 sec  ( 88.1%)
  XC integration            ....      36.824 sec  ( 19.5% of F)
    Basis function eval.    ....       5.374 sec  ( 14.6% of XC)
    Density eval.           ....       2.848 sec  (  7.7% of XC)
    XC-Functional eval.     ....       2.470 sec  (  6.7% of XC)
    XC-Potential eval.      ....       2.735 sec  (  7.4% of XC)
Diagonalization             ....       0.315 sec  (  0.1%)
Density matrix formation    ....       0.015 sec  (  0.0%)
Population analysis         ....       0.034 sec  (  0.0%)
Initial guess               ....       1.626 sec  (  0.8%)
Orbital Transformation      ....       0.000 sec  (  0.0%)
Orbital Orthonormalization  ....       0.000 sec  (  0.0%)
DIIS solution               ....       1.225 sec  (  0.6%)
SOSCF solution              ....       0.122 sec  (  0.1%)
Grid generation             ....      11.249 sec  (  5.3%)

-------------------------   --------------------
FINAL SINGLE POINT ENERGY      -652.835202883470
-------------------------   --------------------

------------------------------------------------------------------------------
                         ORCA SCF GRADIENT CALCULATION
------------------------------------------------------------------------------

Gradient of the Kohn-Sham DFT energy:
Kohn-Sham wavefunction type      ... RKS
Hartree-Fock exchange scaling    ...    0.200
Number of operators              ...    1
Number of atoms                  ...   29
Basis set dimensions             ...  149
Integral neglect threshold       ... 2.5e-11
Integral primitive cutoff        ... 2.5e-12

Nuclear repulsion gradient       ... done
One Electron Gradient            ... done
Pre-screening matrix             ... done
Starting the two electron gradient:
Two electron gradient done
Exchange-correlation gradient    ... done

------------------
CARTESIAN GRADIENT
------------------

   1   C   :    0.014250676    0.008310004   -0.017411651
   2   C   :    0.013195881   -0.003630627   -0.003832160
   3   C   :   -0.000496862   -0.000221037   -0.001689932
   4   C   :   -0.003228726   -0.005767841   -0.002282212
   5   O   :    0.005530218   -0.005341662    0.014993067
   6   H   :    0.006207391    0.001608551   -0.001824570
   7   H   :    0.000790970    0.003261403    0.000293742
   8   H   :    0.000230201    0.001938248   -0.000882975
   9   H   :   -0.000362272    0.000739067    0.000010404
  10   H   :   -0.000851833    0.000829342    0.000824346
  11   H   :   -0.000455610    0.000843547    0.000447870
  12   H   :    0.000128939    0.000942020    0.000352389
  13   C   :   -0.005310279   -0.000579641    0.008813238
  14   H   :   -0.002195815   -0.002183292    0.003887379
  15   H   :   -0.002052965    0.000456378    0.005355023
  16   O   :   -0.020089166    0.011641904   -0.024509813
  17   C   :   -0.018643182   -0.005569708    0.019608268
  18   C   :    0.033195595   -0.004262406    0.003665303
  19   C   :    0.003332059   -0.005952454    0.001903487
  20   C   :   -0.002691339   -0.002068305    0.003710287
  21   O   :    0.003045811   -0.000794948   -0.002041257
  22   H   :   -0.001265955   -0.000970206   -0.002031842
  23   O   :    0.017111219    0.028185426    0.038123993
  24   H   :    0.010288463   -0.002766893   -0.005157571
  25   H   :    0.002899845    0.000687572   -0.004256896
  26   H   :    0.005956270    0.002243217   -0.003148350
  27   H   :   -0.000310913   -0.000030857   -0.002290211
  28   H   :    0.001068827    0.000147475    0.000326688
  29   H   :   -0.059277448   -0.021694276   -0.030956043

Difference to translation invariance:
           :    0.0000000000    0.0000000000   -0.0000000000

Norm of the cartesian gradient     ...    0.1103755575
RMS gradient                       ...    0.0118335019
MAX gradient                       ...    0.0592774483

-------
TIMINGS
-------

Total SCF gradient time            ...       54.750 sec

One electron gradient       ....       0.504 sec  (  0.9%)
Prescreening matrices       ....       0.093 sec  (  0.2%)
Two electron gradient       ....      33.746 sec  ( 61.6%)
XC gradient                 ....      20.139 sec  ( 36.8%)
------------------------------------------------------------------------------
                         ORCA GEOMETRY RELAXATION STEP
------------------------------------------------------------------------------

Reading the OPT-File                    .... done
Getting information on internals        .... done
Copying old internal coords+grads       .... done
Making the new internal coordinates     .... (new redundants).... done
Validating the new internal coordinates .... (new redundants).... done
Calculating the B-matrix                .... done
Calculating the G,G- and P matrices     .... done
Transforming gradient to internals      .... done
Projecting the internal gradient        .... done
Number of atoms                         ....  29
Number of internal coordinates          .... 172
Current Energy                          ....  -652.835202883 Eh
Current gradient norm                   ....     0.110375557 Eh/bohr
Maximum allowed component of the step   ....  0.300
Current trust radius                    ....  0.300
Evaluating the initial hessian          ....  (Almloef) done
Projecting the Hessian                  .... done
Forming the augmented Hessian           .... done
Diagonalizing the augmented Hessian     .... done
Last element of RFO vector              ....  0.931706838
Lowest eigenvalues of augmented Hessian:
 -0.038413318  0.007838432  0.033069738  0.033204984  0.036908415
Length of the computed step             ....  0.389834201
Warning: the length of the step is outside the trust region - taking restricted step instead
The input lambda is                     ....    -0.038413
   iter:   1  x=   -0.075320  g=    1.679112 f(x)=     0.061971
   iter:   2  x=   -0.097133  g=    0.843592 f(x)=     0.018401
   iter:   3  x=   -0.101165  g=    0.628443 f(x)=     0.002534
   iter:   4  x=   -0.101268  g=    0.598404 f(x)=     0.000061
   iter:   5  x=   -0.101268  g=    0.597670 f(x)=     0.000000
   iter:   6  x=   -0.101268  g=    0.597670 f(x)=     0.000000
   iter:   7  x=   -0.101268  g=    0.597670 f(x)=     0.000000
The output lambda is                    ....    -0.101268 (7 iterations)
The final length of the internal step   ....  0.300000000
Converting the step to cartesian space:
 Initial RMS(Int)=    0.0228747855
Transforming coordinates:
[...]
  29   2.0000      -0.491079       -13.3629 
  30   2.0000      -0.471252       -12.8234 
  31   2.0000      -0.460431       -12.5290 
  32   2.0000      -0.448402       -12.2016 
  33   2.0000      -0.430709       -11.7202 
  34   2.0000      -0.422639       -11.5006 
  35   2.0000      -0.414931       -11.2908 
  36   2.0000      -0.404719       -11.0130 
  37   2.0000      -0.385128       -10.4799 
  38   2.0000      -0.379775       -10.3342 
  39   2.0000      -0.367679       -10.0051 
  40   2.0000      -0.365916        -9.9571 
  41   2.0000      -0.359026        -9.7696 
  42   2.0000      -0.350751        -9.5444 
  43   2.0000      -0.342143        -9.3102 
  44   2.0000      -0.322557        -8.7772 
  45   2.0000      -0.309062        -8.4100 
  46   2.0000      -0.300607        -8.1799 
  47   2.0000      -0.269882        -7.3439 
  48   2.0000      -0.265545        -7.2258 
  49   2.0000      -0.254595        -6.9279 
  50   2.0000      -0.239137        -6.5073 
  51   0.0000       0.055631         1.5138 
  52   0.0000       0.076434         2.0799 
  53   0.0000       0.092028         2.5042 
  54   0.0000       0.096677         2.6307 
  55   0.0000       0.103369         2.8128 
  56   0.0000       0.114649         3.1198 
  57   0.0000       0.118579         3.2267 
  58   0.0000       0.130273         3.5449 
  59   0.0000       0.138443         3.7672 
  60   0.0000       0.141322         3.8456 
  61   0.0000       0.152468         4.1489 
  62   0.0000       0.154592         4.2067 
  63   0.0000       0.156085         4.2473 
  64   0.0000       0.159735         4.3466 
  65   0.0000       0.169070         4.6006 
  66   0.0000       0.181773         4.9463 
  67   0.0000       0.190589         5.1862 
  68   0.0000       0.193562         5.2671 
  69   0.0000       0.199634         5.4323 
  70   0.0000       0.209808         5.7092 
  71   0.0000       0.224612         6.1120 
  72   0.0000       0.231516         6.2999 
  73   0.0000       0.240325         6.5396 
  74   0.0000       0.247179         6.7261 
  75   0.0000       0.258411         7.0317 
  76   0.0000       0.274602         7.4723 
  77   0.0000       0.279938         7.6175 
  78   0.0000       0.290275         7.8988 
  79   0.0000       0.306692         8.3455 
  80   0.0000       0.313018         8.5177 
  81   0.0000       0.507427        13.8078 
  82   0.0000       0.538224        14.6458 
  83   0.0000       0.554283        15.0828 
  84   0.0000       0.560494        15.2518 
  85   0.0000       0.564414        15.3585 
  86   0.0000       0.568034        15.4570 
  87   0.0000       0.576353        15.6834 
  88   0.0000       0.577220        15.7070 
  89   0.0000       0.597420        16.2566 
  90   0.0000       0.599528        16.3140 
  91   0.0000       0.608846        16.5675 
  92   0.0000       0.623040        16.9538 
  93   0.0000       0.628337        17.0979 
  94   0.0000       0.631900        17.1949 
  95   0.0000       0.638949        17.3867 
  96   0.0000       0.651277        17.7221 
  97   0.0000       0.665478        18.1086 
  98   0.0000       0.684224        18.6187 
  99   0.0000       0.724348        19.7105 
 100   0.0000       0.731332        19.9006 
 101   0.0000       0.774236        21.0680 
 102   0.0000       0.791942        21.5498 
 103   0.0000       0.813695        22.1418 
 104   0.0000       0.821112        22.3436 
 105   0.0000       0.838599        22.8194 
 106   0.0000       0.843524        22.9535 
 107   0.0000       0.856845        23.3159 
 108   0.0000       0.863203        23.4890 
 109   0.0000       0.873512        23.7695 
 110   0.0000       0.880246        23.9527 
 111   0.0000       0.883705        24.0468 
 112   0.0000       0.903341        24.5811 
 113   0.0000       0.905619        24.6431 
 114   0.0000       0.919933        25.0327 
 115   0.0000       0.930641        25.3240 
 116   0.0000       0.941468        25.6186 
 117   0.0000       0.944601        25.7039 
 118   0.0000       0.955532        26.0013 
 119   0.0000       0.962877        26.2012 
 120   0.0000       0.975830        26.5537 
 121   0.0000       0.983243        26.7554 
 122   0.0000       0.998216        27.1628 
 123   0.0000       1.038272        28.2528 
 124   0.0000       1.054800        28.7026 
 125   0.0000       1.084430        29.5088 
 126   0.0000       1.110221        30.2106 
 127   0.0000       1.122503        30.5448 
 128   0.0000       1.131931        30.8014 
 129   0.0000       1.177492        32.0412 
 130   0.0000       1.208778        32.8925 
 131   0.0000       1.225563        33.3493 
 132   0.0000       1.266430        34.4613 
 133   0.0000       1.312132        35.7049 
 134   0.0000       1.335951        36.3531 
 135   0.0000       1.347011        36.6540 
 136   0.0000       1.384417        37.6719 
 137   0.0000       1.426539        38.8181 
 138   0.0000       1.435495        39.0618 
 139   0.0000       1.484806        40.4036 
 140   0.0000       1.530508        41.6472 
 141   0.0000       1.541850        41.9559 
 142   0.0000       1.644755        44.7561 
 143   0.0000       1.715824        46.6900 
 144   0.0000       1.771304        48.1996 
 145   0.0000       1.893229        51.5174 
 146   0.0000       1.936087        52.6836 
 147   0.0000       2.077018        56.5185 
 148   0.0000       2.162654        58.8488 

                    ********************************
                    * MULLIKEN POPULATION ANALYSIS *
                    ********************************

-----------------------
MULLIKEN ATOMIC CHARGES
-----------------------
   0 C :    0.306480
   1 C :   -0.261501
   2 C :   -0.308993
   3 C :   -0.018075
   4 O :   -0.511007
   5 H :    0.157238
   6 H :    0.148457
   7 H :    0.158521
   8 H :    0.150267
   9 H :    0.156162
  10 H :    0.146471
  11 H :    0.153693
  12 C :    0.014639
  13 H :    0.151711
  14 H :    0.136994
  15 O :   -0.545918
  16 C :    0.064448
  17 C :    0.077216
  18 C :   -0.287144
  19 C :   -0.017196
  20 O :   -0.525940
  21 H :    0.153749
  22 O :   -0.605173
  23 H :    0.141656
  24 H :    0.144304
  25 H :    0.167801
  26 H :    0.151605
  27 H :    0.135759
  28 H :    0.363776
Sum of atomic charges:    0.0000000

--------------------------------
MULLIKEN REDUCED ORBITAL CHARGES
--------------------------------
  0 C s       :     3.193119  s :     3.193119
      pz      :     0.804713  p :     2.500401
      px      :     0.675258
      py      :     1.020431
  1 C s       :     3.306907  s :     3.306907
      pz      :     0.969269  p :     2.954595
      px      :     1.047318
      py      :     0.938007
  2 C s       :     3.318850  s :     3.318850
      pz      :     0.916609  p :     2.990143
      px      :     1.082808
      py      :     0.990726
  3 C s       :     3.269171  s :     3.269171
      pz      :     0.948053  p :     2.748905
      px      :     1.064306
      py      :     0.736546
  4 O s       :     3.941869  s :     3.941869
      pz      :     1.361434  p :     4.569138
      px      :     1.692429
      py      :     1.515276
  5 H s       :     0.842762  s :     0.842762
  6 H s       :     0.851543  s :     0.851543
  7 H s       :     0.841479  s :     0.841479
  8 H s       :     0.849733  s :     0.849733
  9 H s       :     0.843838  s :     0.843838
 10 H s       :     0.853529  s :     0.853529
 11 H s       :     0.846307  s :     0.846307
 12 C s       :     3.254203  s :     3.254203
      pz      :     0.800586  p :     2.731158
      px      :     0.900213
      py      :     1.030359
 13 H s       :     0.848289  s :     0.848289
 14 H s       :     0.863006  s :     0.863006
 15 O s       :     3.925027  s :     3.925027
      pz      :     1.531872  p :     4.620890
      px      :     1.294835
      py      :     1.794183
 16 C s       :     3.260702  s :     3.260702
      pz      :     0.851784  p :     2.674850
      px      :     0.889835
      py      :     0.933231
 17 C s       :     3.267123  s :     3.267123
      pz      :     0.933612  p :     2.655661
      px      :     0.799043
      py      :     0.923007
 18 C s       :     3.308763  s :     3.308763
      pz      :     0.912676  p :     2.978381
      px      :     1.065928
      py      :     0.999777
 19 C s       :     3.266413  s :     3.266413
      pz      :     0.926013  p :     2.750783
      px      :     1.051266
      py      :     0.773504
 20 O s       :     3.944290  s :     3.944290
      pz      :     1.324086  p :     4.581650
      px      :     1.702525
      py      :     1.555039
 21 H s       :     0.846251  s :     0.846251
 22 O s       :     3.919002  s :     3.919002
      pz      :     1.718456  p :     4.686171
      px      :     1.210929
      py      :     1.756786
 23 H s       :     0.858344  s :     0.858344
 24 H s       :     0.855696  s :     0.855696
 25 H s       :     0.832199  s :     0.832199
 26 H s       :     0.848395  s :     0.848395
 27 H s       :     0.864241  s :     0.864241
 28 H s       :     0.636224  s :     0.636224


                     *******************************
                     * LOEWDIN POPULATION ANALYSIS *
                     *******************************

----------------------
LOEWDIN ATOMIC CHARGES
----------------------
   0 C :    0.183298
   1 C :   -0.218133
   2 C :   -0.218991
   3 C :   -0.032156
   4 O :   -0.318584
   5 H :    0.103557
   6 H :    0.116018
   7 H :    0.123359
   8 H :    0.118707
   9 H :    0.113170
  10 H :    0.102700
  11 H :    0.108539
  12 C :   -0.033013
  13 H :    0.107406
  14 H :    0.101695
  15 O :   -0.342377
  16 C :    0.013890
  17 C :    0.038959
  18 C :   -0.241580
  19 C :   -0.032412
  20 O :   -0.329433
  21 H :    0.115192
  22 O :   -0.418271
  23 H :    0.110207
  24 H :    0.116483
  25 H :    0.124447
  26 H :    0.108622
  27 H :    0.096075
  28 H :    0.282624

-------------------------------
LOEWDIN REDUCED ORBITAL CHARGES
-------------------------------
  0 C s       :     2.952915  s :     2.952915
      pz      :     0.925644  p :     2.863787
      px      :     0.842142
      py      :     1.096001
  1 C s       :     2.978919  s :     2.978919
      pz      :     1.072240  p :     3.239214
      px      :     1.113892
      py      :     1.053081
  2 C s       :     2.971165  s :     2.971165
      pz      :     1.038202  p :     3.247826
      px      :     1.128975
      py      :     1.080648
  3 C s       :     2.987245  s :     2.987245
      pz      :     1.045080  p :     3.044911
      px      :     1.121947
      py      :     0.877883
  4 O s       :     3.601811  s :     3.601811
      pz      :     1.424687  p :     4.716774
      px      :     1.729460
      py      :     1.562627
  5 H s       :     0.896443  s :     0.896443
  6 H s       :     0.883982  s :     0.883982
  7 H s       :     0.876641  s :     0.876641
  8 H s       :     0.881293  s :     0.881293
  9 H s       :     0.886830  s :     0.886830
 10 H s       :     0.897300  s :     0.897300
 11 H s       :     0.891461  s :     0.891461
 12 C s       :     2.978134  s :     2.978134
      pz      :     0.931218  p :     3.054879
      px      :     1.029581
      py      :     1.094080
 13 H s       :     0.892594  s :     0.892594
 14 H s       :     0.898305  s :     0.898305
 15 O s       :     3.579732  s :     3.579732
      pz      :     1.580427  p :     4.762645
      px      :     1.361461
      py      :     1.820757
 16 C s       :     2.962388  s :     2.962388
      pz      :     0.948800  p :     3.023722
      px      :     1.015134
      py      :     1.059789
 17 C s       :     2.953611  s :     2.953611
      pz      :     1.036795  p :     3.007430
      px      :     0.919632
      py      :     1.051003
 18 C s       :     2.984361  s :     2.984361
      pz      :     1.041878  p :     3.257218
      px      :     1.128792
      py      :     1.086549
 19 C s       :     2.984259  s :     2.984259
      pz      :     1.017781  p :     3.048153
      px      :     1.125384
      py      :     0.904987
 20 O s       :     3.599791  s :     3.599791
      pz      :     1.390378  p :     4.729642
      px      :     1.737109
      py      :     1.602155
 21 H s       :     0.884808  s :     0.884808
 22 O s       :     3.614345  s :     3.614345
      pz      :     1.751391  p :     4.803926
      px      :     1.276816
      py      :     1.775720
 23 H s       :     0.889793  s :     0.889793
 24 H s       :     0.883517  s :     0.883517
 25 H s       :     0.875553  s :     0.875553
 26 H s       :     0.891378  s :     0.891378
 27 H s       :     0.903925  s :     0.903925
 28 H s       :     0.717376  s :     0.717376


                      *****************************
                      * MAYER POPULATION ANALYSIS *
                      *****************************

  NA   - Mulliken gross atomic population
  ZA   - Total nuclear charge
  QA   - Mulliken gross atomic charge
  VA   - Mayer's total valence
  BVA  - Mayer's bonded valence
  FA   - Mayer's free valence

  ATOM       NA         ZA         QA         VA         BVA        FA
  0 C      5.6935     6.0000     0.3065     3.6463     3.6463    -0.0000
  1 C      6.2615     6.0000    -0.2615     3.7184     3.7184    -0.0000
  2 C      6.3090     6.0000    -0.3090     3.7613     3.7613     0.0000
  3 C      6.0181     6.0000    -0.0181     3.6535     3.6535     0.0000
  4 O      8.5110     8.0000    -0.5110     1.7950     1.7950     0.0000
  5 H      0.8428     1.0000     0.1572     0.9258     0.9258    -0.0000
  6 H      0.8515     1.0000     0.1485     0.9329     0.9329     0.0000
  7 H      0.8415     1.0000     0.1585     0.9381     0.9381    -0.0000
  8 H      0.8497     1.0000     0.1503     0.9363     0.9363     0.0000
  9 H      0.8438     1.0000     0.1562     0.9353     0.9353     0.0000
 10 H      0.8535     1.0000     0.1465     0.9273     0.9273     0.0000
 11 H      0.8463     1.0000     0.1537     0.9285     0.9285     0.0000
 12 C      5.9854     6.0000     0.0146     3.6054     3.6054    -0.0000
 13 H      0.8483     1.0000     0.1517     0.9272     0.9272    -0.0000
 14 H      0.8630     1.0000     0.1370     0.9312     0.9312    -0.0000
 15 O      8.5459     8.0000    -0.5459     1.7330     1.7330     0.0000
 16 C      5.9356     6.0000     0.0644     3.6151     3.6151     0.0000
 17 C      5.9228     6.0000     0.0772     3.6614     3.6614     0.0000
 18 C      6.2871     6.0000    -0.2871     3.6923     3.6923     0.0000
 19 C      6.0172     6.0000    -0.0172     3.6678     3.6678    -0.0000
 20 O      8.5259     8.0000    -0.5259     1.7648     1.7648    -0.0000
 21 H      0.8463     1.0000     0.1537     0.9341     0.9341    -0.0000
 22 O      8.6052     8.0000    -0.6052     1.7429     1.7429     0.0000
 23 H      0.8583     1.0000     0.1417     0.9397     0.9397     0.0000
 24 H      0.8557     1.0000     0.1443     0.9404     0.9404     0.0000
 25 H      0.8322     1.0000     0.1678     0.9458     0.9458     0.0000
 26 H      0.8484     1.0000     0.1516     0.9302     0.9302     0.0000
 27 H      0.8642     1.0000     0.1358     0.9284     0.9284     0.0000
 28 H      0.6362     1.0000     0.3638     0.8332     0.8332     0.0000

  Mayer bond orders larger than 0.100000
B(  0-C ,  1-C ) :   0.9378 B(  0-C ,  4-O ) :   0.9086 B(  0-C ,  5-H ) :   0.9255 
B(  0-C , 15-O ) :   0.8374 B(  1-C ,  2-C ) :   0.9524 B(  1-C ,  6-H ) :   0.9357 
B(  1-C ,  7-H ) :   0.9352 B(  2-C ,  3-C ) :   0.9532 B(  2-C ,  8-H ) :   0.9442 
B(  2-C ,  9-H ) :   0.9424 B(  3-C ,  4-O ) :   0.8299 B(  3-C , 10-H ) :   0.9316 
B(  3-C , 11-H ) :   0.9402 B( 12-C , 13-H ) :   0.9207 B( 12-C , 14-H ) :   0.9045 
B( 12-C , 15-O ) :   0.8294 B( 12-C , 16-C ) :   0.9076 B( 16-C , 17-C ) :   0.9071 
B( 16-C , 20-O ) :   0.8695 B( 16-C , 21-H ) :   0.9228 B( 17-C , 18-C ) :   0.9240 
B( 17-C , 22-O ) :   0.8915 B( 17-C , 23-H ) :   0.9351 B( 18-C , 19-C ) :   0.9463 
B( 18-C , 24-H ) :   0.9381 B( 18-C , 25-H ) :   0.9177 B( 19-C , 20-O ) :   0.8402 
B( 19-C , 26-H ) :   0.9341 B( 19-C , 27-H ) :   0.9372 B( 22-O , 28-H ) :   0.7948 


-------
TIMINGS
-------

Total SCF time: 0 days 0 hours 1 min 36 sec 

Total time                  ....      96.729 sec
Sum of individual times     ....      90.962 sec  ( 94.0%)

Fock matrix formation       ....      82.599 sec  ( 85.4%)
  XC integration            ....      14.246 sec  ( 17.2% of F)
    Basis function eval.    ....       3.214 sec  ( 22.6% of XC)
    Density eval.           ....       1.554 sec  ( 10.9% of XC)
    XC-Functional eval.     ....       0.596 sec  (  4.2% of XC)
    XC-Potential eval.      ....       1.483 sec  ( 10.4% of XC)
Diagonalization             ....       0.010 sec  (  0.0%)
Density matrix formation    ....       0.008 sec  (  0.0%)
Population analysis         ....       0.103 sec  (  0.1%)
Initial guess               ....       0.009 sec  (  0.0%)
Orbital Transformation      ....       0.000 sec  (  0.0%)
Orbital Orthonormalization  ....       0.006 sec  (  0.0%)
DIIS solution               ....       0.002 sec  (  0.0%)
SOSCF solution              ....       0.295 sec  (  0.3%)
Grid generation             ....       7.936 sec  (  8.2%)

-------------------------   --------------------
FINAL SINGLE POINT ENERGY      -652.862761867818
-------------------------   --------------------

                                *** OPTIMIZATION RUN DONE ***

                            ***************************************
                            *     ORCA property calculations      *
                            ***************************************

                                    ---------------------
                                    Active property flags
                                    ---------------------
   (+) Dipole Moment


------------------------------------------------------------------------------
                       ORCA ELECTRIC PROPERTIES CALCULATION
------------------------------------------------------------------------------

Dipole Moment Calculation                       ... on
Quadrupole Moment Calculation                   ... off
Polarizability Calculation                      ... off
GBWName                                         ... project_8048/ensemble_345_165.gbw
Electron density file                           ... project_8048/ensemble_345_165.scfp
The origin for moment calculation is the CENTER OF MASS  = (-43.526029, 50.937985 89.123295)

-------------
DIPOLE MOMENT
-------------
                                X             Y             Z
Electronic contribution:     -3.34433      -4.34444       0.64667
Nuclear contribution   :      4.28279       5.04831      -0.90757
                        -----------------------------------------
Total Dipole Moment    :      0.93845       0.70387      -0.26089
                        -----------------------------------------
Magnitude (a.u.)       :      1.20175
Magnitude (Debye)      :      3.05459



--------------------
Rotational spectrum 
--------------------
 
Rotational constants in cm-1:     0.049498     0.015427     0.014993 
Rotational constants in MHz :  1483.911089   462.484127   449.480509 

 Dipole components along the rotational axes: 
x,y,z [a.u.] :     0.877953    -0.453030    -0.684218 
x,y,z [Debye]:     2.231579    -1.151512    -1.739143 

 

Timings for individual modules:

Sum of individual times         ...     1444.192 sec (=  24.070 min)
GTO integral calculation        ...       20.385 sec (=   0.340 min)   1.4 %
SCF iterations                  ...     1082.621 sec (=  18.044 min)  75.0 %
SCF Gradient evaluation         ...      334.519 sec (=   5.575 min)  23.2 %
Geometry relaxation             ...        6.667 sec (=   0.111 min)   0.5 %
                             ****ORCA TERMINATED NORMALLY****
TOTAL RUN TIME: 0 days 0 hours 24 minutes 15 seconds 8 msec
