
                                 *****************
                                 * O   R   C   A *
                                 *****************

           --- An Ab Initio, DFT and Semiempirical electronic structure package ---

                  #######################################################
                  #                        -***-                        #
                  #          Department of theory and spectroscopy      #
                  #               Directorship: Frank Neese             #
                  #        Max Planck Institute fuer Kohlenforschung    #
                  #                Kaiser Wilhelm Platz 1               #
                  #                 D-45470 Muelheim/Ruhr               #
                  #                      Germany                        #
                  #                                                     #
                  #                  All rights reserved                #
                  #                        -***-                        #
                  #######################################################


                         Program Version 4.2.0 -  RELEASE  -


 With contributions from (in alphabetic order):
   Daniel Aravena         : Magnetic Suceptibility
   Michael Atanasov       : Ab Initio Ligand Field Theory (pilot matlab implementation)
   Alexander A. Auer      : GIAO ZORA, VPT2
   Ute Becker             : Parallelization
   Giovanni Bistoni       : ED, misc. LED, open-shell LED, HFLED
   Martin Brehm           : Molecular dynamics
   Dmytro Bykov           : SCF Hessian
   Vijay G. Chilkuri      : MRCI spin determinant printing, contributions to CSF-ICE
   Dipayan Datta          : RHF DLPNO-CCSD density
   Achintya Kumar Dutta   : EOM-CC, STEOM-CC
   Dmitry Ganyushin       : Spin-Orbit,Spin-Spin,Magnetic field MRCI
   Miquel Garcia          : C-PCM Hessian, Gaussian charge scheme
   Yang Guo               : DLPNO-NEVPT2, CIM, IAO-localization
   Andreas Hansen         : Spin unrestricted coupled pair/coupled cluster methods
   Benjamin Helmich-Paris : CASSCF linear response (MC-RPA)
   Lee Huntington         : MR-EOM, pCC
   Robert Izsak           : Overlap fitted RIJCOSX, COSX-SCS-MP3, EOM
   Christian Kollmar      : KDIIS, OOCD, Brueckner-CCSD(T), CCSD density
   Simone Kossmann        : Meta GGA functionals, TD-DFT gradient, OOMP2, MP2 Hessian
   Martin Krupicka        : AUTO-CI
   Lucas Lang             : DCDCAS
   Dagmar Lenk            : GEPOL surface, SMD
   Dimitrios Liakos       : Extrapolation schemes; Compound Job, initial MDCI parallelization
   Dimitrios Manganas     : Further ROCIS development; embedding schemes
   Dimitrios Pantazis     : SARC Basis sets
   Taras Petrenko         : DFT Hessian,TD-DFT gradient, ASA, ECA, R-Raman, ABS, FL, XAS/XES, NRVS
   Peter Pinski           : DLPNO-MP2, DLPNO-MP2 Gradient
   Christoph Reimann      : Effective Core Potentials
   Marius Retegan         : Local ZFS, SOC
   Christoph Riplinger    : Optimizer, TS searches, QM/MM, DLPNO-CCSD(T), (RO)-DLPNO pert. Triples
   Tobias Risthaus        : Range-separated hybrids, TD-DFT gradient, RPA, STAB
   Michael Roemelt        : Original ROCIS implementation
   Masaaki Saitow         : Open-shell DLPNO-CCSD energy and density
   Barbara Sandhoefer     : DKH picture change effects
   Avijit Sen             : IP-ROCIS
   Kantharuban Sivalingam : CASSCF convergence, NEVPT2, FIC-MRCI
   Bernardo de Souza      : ESD, SOC TD-DFT
   Georgi Stoychev        : AutoAux, RI-MP2 NMR
   Willem Van den Heuvel  : Paramagnetic NMR
   Boris Wezisla          : Elementary symmetry handling
   Frank Wennmohs         : Technical directorship


 We gratefully acknowledge several colleagues who have allowed us to
 interface, adapt or use parts of their codes:
   Stefan Grimme, W. Hujo, H. Kruse,             : VdW corrections, initial TS optimization,
                  C. Bannwarth                     DFT functionals, gCP, sTDA/sTD-DF
   Ed Valeev, F. Pavosevic, A. Kumar             : LibInt (2-el integral package), F12 methods
   Garnet Chan, S. Sharma, J. Yang, R. Olivares  : DMRG
   Ulf Ekstrom                                   : XCFun DFT Library
   Mihaly Kallay                                 : mrcc  (arbitrary order and MRCC methods)
   Andreas Klamt, Michael Diedenhofen            : otool_cosmo (COSMO solvation model)
   Jiri Pittner, Ondrej Demel                    : Mk-CCSD
   Frank Weinhold                                : gennbo (NPA and NBO analysis)
   Christopher J. Cramer and Donald G. Truhlar   : smd solvation model
   Lars Goerigk                                  : TD-DFT with DH, B97 family of functionals
   V. Asgeirsson, H. Jonsson                     : NEB implementation
   FAccTs GmbH                                   : IRC, NEB, NEB-TS, Multilevel, MM, QM/MM, CI optimization
   S Lehtola, MJT Oliveira, MAL Marques          : LibXC Library


 Your calculation uses the libint2 library for the computation of 2-el integrals
 For citations please refer to: http://libint.valeyev.net

 Your ORCA version has been built with support for libXC version: 4.2.3
 For citations please refer to: https://tddft.org/programs/libxc/

 This ORCA versions uses:
   CBLAS   interface :  Fast vector & matrix operations
   LAPACKE interface :  Fast linear algebra routines
   SCALAPACK package :  Parallel linear algebra routines


----- Orbital basis set information -----
Your calculation utilizes the basis: 6-31G
   H-He, Li-Ne : W. J. Hehre, R. Ditchfield and J.A. Pople, J. Chem. Phys. 56, 2257 (1972).
                 Note: He and Ne are unpublished basis sets taken from the Gaussian program.
                 Note: Li and B from J. D. Dill and J. A. Pople, J. Chem. Phys. 62, 2921 (1975).
   Na - Ar     : M. M. Francl, W. J. Pietro, W. J. Hehre, J. S. Binkley, M. S. Gordon, 
                 D. J. DeFrees and J. A. Pople, J. Chem. Phys. 77, 3654 (1982).
   K - Zn      : V. A. Rassolov, J. A. Pople, M. A. Ratner, and T. L. Windus, J. Chem. Phys. 109, 1223 (1998).

================================================================================
                                        WARNINGS
                       Please study these warnings very carefully!
================================================================================


WARNING: Geometry Optimization
  ===> : Switching off AutoStart
         For restart on a previous wavefunction, please use MOREAD

INFO   : the flag for use of LIBINT has been found!

================================================================================
                                       INPUT FILE
================================================================================
NAME = project_8052/ensemble_315_315.inp
|  1> # Test redundant internal optimization
|  2> #
|  3> ! RKS B3LYP  Opt TightSCF SmallPrint
|  4> 
|  5> %basis
|  6>         Basis "6-31G"
|  7> end
|  8> 
|  9> %geom
| 10> Constraints
| 11> { D 4  0  15  12  315.0   C } # D for Dihedral angle
| 12> { D 0  15  12  16  315.0   C } # D for Dihedral angle
| 13> { D 0  4  3  2   C } # D for Dihedral angle
| 14> { D 4  3  2  1   C } # D for Dihedral angle
| 15> { D 3  2  1  0   C } # D for Dihedral angle
| 16> { D 2  1  0  4   C } # D for Dihedral angle
| 17> { D 1  0  4  3   C } # D for Dihedral angle
| 18> { D 16  20  19  18   C } # D for Dihedral angle
| 19> { D 20  19  18  17   C } # D for Dihedral angle
| 20> { D 19  18  17  16   C } # D for Dihedral angle
| 21> { D 18  17  16  20   C } # D for Dihedral angle
| 22> { D 17  16  20  19   C } # D for Dihedral angle
| 23> { D 15  12  16  20   C } # D for Dihedral angle
| 24> end
| 25> end
| 26> 
| 27> 
| 28> #%pal 
| 29> #nprocs 8
| 30> #end
| 31> 
| 32> * xyz 0 1
| 33> C  -21.048   26.222   46.251
| 34> C  -20.361   27.558   45.944
| 35> C  -20.329   28.222   47.341
| 36> C  -20.110   27.022   48.296
| 37> O  -20.473   25.807   47.535
| 38> H  -20.833   25.428   45.533
| 39> H  -19.344   27.382   45.576
| 40> H  -20.898   28.157   45.201
| 41> H  -19.543   28.978   47.434
| 42> H  -21.289   28.710   47.548
| 43> H  -20.733   27.082   49.195
| 44> H  -19.064   26.913   48.597
| 45> C  -23.319   25.255   47.135
| 46> H  -23.138   25.363   48.212
| 47> H  -24.401   25.311   46.961
| 48> O  -22.586   26.394   46.375
| 49> C  -22.844   23.840   46.700
| 50> C  -23.667   22.743   47.383
| 51> C  -24.957   22.740   46.530
| 52> C  -24.436   23.052   45.105
| 53> O  -23.088   23.636   45.268
| 54> H  -21.766   23.761   46.856
| 55> O  -22.933   21.378   47.271
| 56> H  -23.858   22.945   48.443
| 57> H  -25.497   21.789   46.578
| 58> H  -25.637   23.529   46.874
| 59> H  -25.074   23.767   44.572
| 60> H  -24.326   22.152   44.494
| 61> H  -22.730   21.155   46.218
| 62> *
| 63> 
| 64>                          ****END OF INPUT****
================================================================================

                       *****************************
                       * Geometry Optimization Run *
                       *****************************

Geometry optimization settings:
Update method            Update   .... BFGS
Choice of coordinates    CoordSys .... Z-matrix Internals
Initial Hessian          InHess   .... Almoef's Model

Convergence Tolerances:
Energy Change            TolE     ....  5.0000e-06 Eh
Max. Gradient            TolMAXG  ....  3.0000e-04 Eh/bohr
RMS Gradient             TolRMSG  ....  1.0000e-04 Eh/bohr
Max. Displacement        TolMAXD  ....  4.0000e-03 bohr
RMS Displacement         TolRMSD  ....  2.0000e-03 bohr
Strict Convergence                ....  False
------------------------------------------------------------------------------
                        ORCA OPTIMIZATION COORDINATE SETUP
------------------------------------------------------------------------------

The optimization will be done in new redundant internal coordinates
Making redundant internal coordinates   ...  (new redundants) done
Evaluating the initial hessian          ...  (Almloef) done
Evaluating the coordinates              ...  done
Calculating the B-matrix                .... done
Calculating the G-matrix                .... done
Diagonalizing the G-matrix              .... done
Imposing constraints:
 Iter   0:  RMS(Cart)=    0.0000421048 RMS(Int)=    0.0000260358
 Iter   1:  RMS(Cart)=    0.0000226858 RMS(Int)=    0.0000141542
 Iter   2:  RMS(Cart)=    0.0000128521 RMS(Int)=    0.0000083535
 Iter   3:  RMS(Cart)=    0.0000076003 RMS(Int)=    0.0000055292
 Iter   4:  RMS(Cart)=    0.0000046733 RMS(Int)=    0.0000041616
 Iter   5:  RMS(Cart)=    0.0000029858 RMS(Int)=    0.0000034874
 Iter   6:  RMS(Cart)=    0.0000019840 RMS(Int)=    0.0000031319
 Iter   7:  RMS(Cart)=    0.0000013741 RMS(Int)=    0.0000029221
 Iter   8:  RMS(Cart)=    0.0000009954 RMS(Int)=    0.0000027804
 Iter   9:  RMS(Cart)=    0.0000007579 RMS(Int)=    0.0000026721
 Iter  10:  RMS(Cart)=    0.0000006087 RMS(Int)=    0.0000025811
 Iter  11:  RMS(Cart)=    0.0000005149 RMS(Int)=    0.0000024997
 Iter  12:  RMS(Cart)=    0.0000004553 RMS(Int)=    0.0000024243
 Iter  13:  RMS(Cart)=    0.0000004163 RMS(Int)=    0.0000023530
 Iter  14:  RMS(Cart)=    0.0000003893 RMS(Int)=    0.0000022848
 Iter  15:  RMS(Cart)=    0.0000003693 RMS(Int)=    0.0000022191
 Iter  16:  RMS(Cart)=    0.0000003533 RMS(Int)=    0.0000021558
 Iter  17:  RMS(Cart)=    0.0000003398 RMS(Int)=    0.0000020945
 Iter  18:  RMS(Cart)=    0.0000003278 RMS(Int)=    0.0000020353
 Iter  19:  RMS(Cart)=    0.0000003169 RMS(Int)=    0.0000019779
 Iter  20:  RMS(Cart)=    0.0000003067 RMS(Int)=    0.0000019223
 Iter  21:  RMS(Cart)=    0.0000002970 RMS(Int)=    0.0000018684
 Iter  22:  RMS(Cart)=    0.0000002877 RMS(Int)=    0.0000018163
 Iter  23:  RMS(Cart)=    0.0000002789 RMS(Int)=    0.0000017657
 Iter  24:  RMS(Cart)=    0.0000002704 RMS(Int)=    0.0000017168
 Iter  25:  RMS(Cart)=    0.0000002622 RMS(Int)=    0.0000016693
 Iter  26:  RMS(Cart)=    0.0000002542 RMS(Int)=    0.0000016233
 Iter  27:  RMS(Cart)=    0.0000002466 RMS(Int)=    0.0000015787
 Iter  28:  RMS(Cart)=    0.0000002392 RMS(Int)=    0.0000015355
 Iter  29:  RMS(Cart)=    0.0000002321 RMS(Int)=    0.0000014936
 Iter  30:  RMS(Cart)=    0.0000002252 RMS(Int)=    0.0000014530
 Iter  31:  RMS(Cart)=    0.0000002185 RMS(Int)=    0.0000014136
 Iter  32:  RMS(Cart)=    0.0000002120 RMS(Int)=    0.0000013754
 Iter  33:  RMS(Cart)=    0.0000002058 RMS(Int)=    0.0000013384
 Iter  34:  RMS(Cart)=    0.0000001997 RMS(Int)=    0.0000013025
 Iter  35:  RMS(Cart)=    0.0000001938 RMS(Int)=    0.0000012677
 Iter  36:  RMS(Cart)=    0.0000001882 RMS(Int)=    0.0000012339
 Iter  37:  RMS(Cart)=    0.0000001827 RMS(Int)=    0.0000012012
 Iter  38:  RMS(Cart)=    0.0000001774 RMS(Int)=    0.0000011694
 Iter  39:  RMS(Cart)=    0.0000001722 RMS(Int)=    0.0000011386
 Iter  40:  RMS(Cart)=    0.0000001672 RMS(Int)=    0.0000011087
 Iter  41:  RMS(Cart)=    0.0000001624 RMS(Int)=    0.0000010797
 Iter  42:  RMS(Cart)=    0.0000001577 RMS(Int)=    0.0000010515
 Iter  43:  RMS(Cart)=    0.0000001532 RMS(Int)=    0.0000010242
 Iter  44:  RMS(Cart)=    0.0000001488 RMS(Int)=    0.0000009977
 Iter  45:  RMS(Cart)=    0.0000001445 RMS(Int)=    0.0000009720
 Iter  46:  RMS(Cart)=    0.0000001404 RMS(Int)=    0.0000009471
 Iter  47:  RMS(Cart)=    0.0000001364 RMS(Int)=    0.0000009229
 Iter  48:  RMS(Cart)=    0.0000001325 RMS(Int)=    0.0000008993
 Iter  49:  RMS(Cart)=    0.0000001288 RMS(Int)=    0.0000008765
 Iter  50:  RMS(Cart)=    0.0000001252 RMS(Int)=    0.0000008544
 Iter  51:  RMS(Cart)=    0.0000001216 RMS(Int)=    0.0000008329
 Iter  52:  RMS(Cart)=    0.0000001182 RMS(Int)=    0.0000008120
 Iter  53:  RMS(Cart)=    0.0000001149 RMS(Int)=    0.0000007917
 Iter  54:  RMS(Cart)=    0.0000001117 RMS(Int)=    0.0000007720
 Iter  55:  RMS(Cart)=    0.0000001086 RMS(Int)=    0.0000007529
 Iter  56:  RMS(Cart)=    0.0000001056 RMS(Int)=    0.0000007344
 Iter  57:  RMS(Cart)=    0.0000001027 RMS(Int)=    0.0000007163
 Iter  58:  RMS(Cart)=    0.0000000998 RMS(Int)=    0.0000006988
 Iter  59:  RMS(Cart)=    0.0000000971 RMS(Int)=    0.0000006818
 Iter  60:  RMS(Cart)=    0.0000000944 RMS(Int)=    0.0000006653
 Iter  61:  RMS(Cart)=    0.0000000918 RMS(Int)=    0.0000006492
 Iter  62:  RMS(Cart)=    0.0000000893 RMS(Int)=    0.0000006336
 Iter  63:  RMS(Cart)=    0.0000000869 RMS(Int)=    0.0000006185
 Iter  64:  RMS(Cart)=    0.0000000845 RMS(Int)=    0.0000006038
 Iter  65:  RMS(Cart)=    0.0000000822 RMS(Int)=    0.0000005895
 Iter  66:  RMS(Cart)=    0.0000000800 RMS(Int)=    0.0000005756
 Iter  67:  RMS(Cart)=    0.0000000779 RMS(Int)=    0.0000005621
 Iter  68:  RMS(Cart)=    0.0000000758 RMS(Int)=    0.0000005490
 Iter  69:  RMS(Cart)=    0.0000000737 RMS(Int)=    0.0000005362
 Iter  70:  RMS(Cart)=    0.0000000718 RMS(Int)=    0.0000005238
 Iter  71:  RMS(Cart)=    0.0000000699 RMS(Int)=    0.0000005117
 Iter  72:  RMS(Cart)=    0.0000000680 RMS(Int)=    0.0000005000
 Iter  73:  RMS(Cart)=    0.0000000662 RMS(Int)=    0.0000004886
 Iter  74:  RMS(Cart)=    0.0000000644 RMS(Int)=    0.0000004776
 Iter  75:  RMS(Cart)=    0.0000000628 RMS(Int)=    0.0000004668
 Iter  76:  RMS(Cart)=    0.0000000611 RMS(Int)=    0.0000004563
 Iter  77:  RMS(Cart)=    0.0000000595 RMS(Int)=    0.0000004461
 Iter  78:  RMS(Cart)=    0.0000000580 RMS(Int)=    0.0000004362
 Iter  79:  RMS(Cart)=    0.0000000564 RMS(Int)=    0.0000004266
 Iter  80:  RMS(Cart)=    0.0000000550 RMS(Int)=    0.0000004172
 Iter  81:  RMS(Cart)=    0.0000000536 RMS(Int)=    0.0000004081
 Iter  82:  RMS(Cart)=    0.0000000522 RMS(Int)=    0.0000003992
 Iter  83:  RMS(Cart)=    0.0000000508 RMS(Int)=    0.0000003906
 Iter  84:  RMS(Cart)=    0.0000000495 RMS(Int)=    0.0000003822
 Iter  85:  RMS(Cart)=    0.0000000483 RMS(Int)=    0.0000003740
 Iter  86:  RMS(Cart)=    0.0000000470 RMS(Int)=    0.0000003661
 Iter  87:  RMS(Cart)=    0.0000000459 RMS(Int)=    0.0000003583
 Iter  88:  RMS(Cart)=    0.0000000447 RMS(Int)=    0.0000003508
 Iter  89:  RMS(Cart)=    0.0000000436 RMS(Int)=    0.0000003435
 Iter  90:  RMS(Cart)=    0.0000000425 RMS(Int)=    0.0000003363
 Iter  91:  RMS(Cart)=    0.0000000414 RMS(Int)=    0.0000003294
 Iter  92:  RMS(Cart)=    0.0000000404 RMS(Int)=    0.0000003226
 Iter  93:  RMS(Cart)=    0.0000000394 RMS(Int)=    0.0000003160
 Iter  94:  RMS(Cart)=    0.0000000384 RMS(Int)=    0.0000003096
 Iter  95:  RMS(Cart)=    0.0000000375 RMS(Int)=    0.0000003034
 Iter  96:  RMS(Cart)=    0.0000000365 RMS(Int)=    0.0000002973
 Iter  97:  RMS(Cart)=    0.0000000356 RMS(Int)=    0.0000002914
 Iter  98:  RMS(Cart)=    0.0000000348 RMS(Int)=    0.0000002856
 Iter  99:  RMS(Cart)=    0.0000000339 RMS(Int)=    0.0000002800
 RMS(Cart) too big - taking linear step, building new B-matrix and trying again
Imposing constraints:
 Iter   0:  RMS(Cart)=    0.0000226861 RMS(Int)=    0.0000141542
 Iter   1:  RMS(Cart)=    0.0000128523 RMS(Int)=    0.0000083535
 Iter   2:  RMS(Cart)=    0.0000076004 RMS(Int)=    0.0000055292
 Iter   3:  RMS(Cart)=    0.0000046734 RMS(Int)=    0.0000041616
 Iter   4:  RMS(Cart)=    0.0000029858 RMS(Int)=    0.0000034873
 Iter   5:  RMS(Cart)=    0.0000019841 RMS(Int)=    0.0000031319
 Iter   6:  RMS(Cart)=    0.0000013741 RMS(Int)=    0.0000029221
 Iter   7:  RMS(Cart)=    0.0000009954 RMS(Int)=    0.0000027804
 Iter   8:  RMS(Cart)=    0.0000007579 RMS(Int)=    0.0000026721
 Iter   9:  RMS(Cart)=    0.0000006087 RMS(Int)=    0.0000025810
 Iter  10:  RMS(Cart)=    0.0000005149 RMS(Int)=    0.0000024997
 Iter  11:  RMS(Cart)=    0.0000004553 RMS(Int)=    0.0000024243
 Iter  12:  RMS(Cart)=    0.0000004162 RMS(Int)=    0.0000023530
 Iter  13:  RMS(Cart)=    0.0000003893 RMS(Int)=    0.0000022848
 Iter  14:  RMS(Cart)=    0.0000003692 RMS(Int)=    0.0000022191
 Iter  15:  RMS(Cart)=    0.0000003533 RMS(Int)=    0.0000021558
 Iter  16:  RMS(Cart)=    0.0000003398 RMS(Int)=    0.0000020945
 Iter  17:  RMS(Cart)=    0.0000003278 RMS(Int)=    0.0000020352
 Iter  18:  RMS(Cart)=    0.0000003169 RMS(Int)=    0.0000019779
 Iter  19:  RMS(Cart)=    0.0000003066 RMS(Int)=    0.0000019223
 Iter  20:  RMS(Cart)=    0.0000002970 RMS(Int)=    0.0000018684
 Iter  21:  RMS(Cart)=    0.0000002877 RMS(Int)=    0.0000018163
 Iter  22:  RMS(Cart)=    0.0000002789 RMS(Int)=    0.0000017657
 Iter  23:  RMS(Cart)=    0.0000002704 RMS(Int)=    0.0000017168
 Iter  24:  RMS(Cart)=    0.0000002622 RMS(Int)=    0.0000016693
 Iter  25:  RMS(Cart)=    0.0000002542 RMS(Int)=    0.0000016233
 Iter  26:  RMS(Cart)=    0.0000002466 RMS(Int)=    0.0000015787
 Iter  27:  RMS(Cart)=    0.0000002392 RMS(Int)=    0.0000015355
 Iter  28:  RMS(Cart)=    0.0000002321 RMS(Int)=    0.0000014936
 Iter  29:  RMS(Cart)=    0.0000002252 RMS(Int)=    0.0000014530
 Iter  30:  RMS(Cart)=    0.0000002185 RMS(Int)=    0.0000014136
 Iter  31:  RMS(Cart)=    0.0000002120 RMS(Int)=    0.0000013754
 Iter  32:  RMS(Cart)=    0.0000002058 RMS(Int)=    0.0000013384
 Iter  33:  RMS(Cart)=    0.0000001997 RMS(Int)=    0.0000013025
 Iter  34:  RMS(Cart)=    0.0000001938 RMS(Int)=    0.0000012677
 Iter  35:  RMS(Cart)=    0.0000001882 RMS(Int)=    0.0000012339
 Iter  36:  RMS(Cart)=    0.0000001827 RMS(Int)=    0.0000012012
 Iter  37:  RMS(Cart)=    0.0000001774 RMS(Int)=    0.0000011694
 Iter  38:  RMS(Cart)=    0.0000001722 RMS(Int)=    0.0000011386
 Iter  39:  RMS(Cart)=    0.0000001672 RMS(Int)=    0.0000011087
 Iter  40:  RMS(Cart)=    0.0000001624 RMS(Int)=    0.0000010797
 Iter  41:  RMS(Cart)=    0.0000001577 RMS(Int)=    0.0000010516
 Iter  42:  RMS(Cart)=    0.0000001532 RMS(Int)=    0.0000010243
 Iter  43:  RMS(Cart)=    0.0000001488 RMS(Int)=    0.0000009978
CONVERGED
Small eigenvalue found = 7.117e-03
Small eigenvalue found = 1.435e-02
Small eigenvalue found = 1.962e-02
The first mode is                       ....   91
The number of degrees of freedom        ....   81
Storing new coordinates                 .... done

    -----------------------------------------------------------------
                    Redundant Internal Coordinates


    -----------------------------------------------------------------
         Definition                    Initial Value    Approx d2E/dq
    -----------------------------------------------------------------
      1. B(C   1,C   0)                  1.5333         0.369027   
      2. B(C   2,C   1)                  1.5471         0.350825   
      3. B(C   3,C   2)                  1.5492         0.348147   
      4. B(O   4,C   0)                  1.4668         0.422031   
      5. B(O   4,C   3)                  1.4789         0.403699   
      6. B(H   5,C   0)                  1.0919         0.357632   
      7. B(H   6,C   1)                  1.0958         0.352561   
      8. B(H   7,C   1)                  1.0951         0.353431   
      9. B(H   8,C   2)                  1.0945         0.354166   
     10. B(H   9,C   2)                  1.0966         0.351438   
     11. B(H  10,C   3)                  1.0954         0.353010   
     12. B(H  11,C   3)                  1.0939         0.354989   
     13. B(H  13,C  12)                  1.0974         0.350403   
     14. B(H  14,C  12)                  1.0973         0.350531   
     15. B(O  15,C   0)                  1.5525         0.307993   
     16. B(O  15,C  12)                  1.5531         0.307336   
     17. B(C  16,C  12)                  1.5547         0.341176   
     18. B(C  17,C  16)                  1.5321         0.370750   
     19. B(C  18,C  17)                  1.5465         0.351580   
     20. B(C  19,C  18)                  1.5490         0.348385   
     21. B(O  20,C  16)                  1.4669         0.421888   
     22. B(O  20,C  19)                  1.4781         0.404897   
     23. B(H  21,C  16)                  1.0921         0.357346   
     24. B(O  22,C  17)                  1.5539         0.306496   
     25. B(H  23,C  17)                  1.0958         0.352445   
     26. B(H  24,C  18)                  1.0947         0.353973   
     27. B(H  25,C  18)                  1.0969         0.351047   
     28. B(H  26,C  19)                  1.0965         0.351576   
     29. B(H  27,C  19)                  1.0934         0.355691   
     30. B(H  28,O  22)                  1.0953         0.316269   
     31. A(O   4,C   0,H   5)          107.0216         0.328541   
     32. A(C   1,C   0,O  15)          111.3019         0.348740   
     33. A(C   1,C   0,O   4)          104.2484         0.367935   
     34. A(O   4,C   0,O  15)          110.4735         0.354548   
     35. A(C   1,C   0,H   5)          114.4376         0.323302   
     36. A(H   5,C   0,O  15)          109.1577         0.312058   
     37. A(C   0,C   1,C   2)          101.6797         0.358729   
     38. A(C   2,C   1,H   7)          112.8319         0.320016   
     39. A(C   2,C   1,H   6)          110.6708         0.319888   
     40. A(C   0,C   1,H   6)          110.0676         0.322546   
     41. A(H   6,C   1,H   7)          108.3681         0.289027   
     42. A(C   0,C   1,H   7)          113.1242         0.322677   
     43. A(C   1,C   2,H   8)          112.8318         0.320125   
     44. A(C   1,C   2,C   3)          103.1267         0.355196   
     45. A(C   1,C   2,H   9)          110.0800         0.319721   
     46. A(C   3,C   2,H   9)          110.6152         0.319321   
     47. A(C   3,C   2,H   8)          112.4038         0.319725   
     48. A(H   8,C   2,H   9)          107.7728         0.288977   
     49. A(O   4,C   3,H  10)          109.1298         0.325449   
     50. A(C   2,C   3,H  10)          112.5253         0.319554   
     51. A(C   2,C   3,O   4)          106.5276         0.361529   
     52. A(O   4,C   3,H  11)          107.1237         0.325748   
     53. A(H  10,C   3,H  11)          108.8728         0.289284   
     54. A(C   2,C   3,H  11)          112.4566         0.319846   
     55. A(C   0,O   4,C   3)          108.3147         0.371320   
     56. A(H  14,C  12,C  16)          107.6611         0.318135   
     57. A(H  13,C  12,H  14)          108.2533         0.288377   
     58. A(H  13,C  12,O  15)          109.2825         0.310922   
     59. A(H  14,C  12,O  15)          110.5074         0.310940   
     60. A(O  15,C  12,C  16)          112.7280         0.344045   
     61. A(H  13,C  12,C  16)          108.2835         0.318116   
     62. A(C   0,O  15,C  12)          115.1738         0.336155   
     63. A(C  12,C  16,C  17)          111.2744         0.357314   
     64. A(C  12,C  16,O  20)          110.4197         0.363004   
     65. A(C  17,C  16,O  20)          104.2570         0.368208   
     66. A(C  12,C  16,H  21)          109.1141         0.319136   
     67. A(C  17,C  16,H  21)          114.5053         0.323507   
     68. A(O  20,C  16,H  21)          107.0720         0.328480   
     69. A(C  16,C  17,C  18)          101.7464         0.359145   
     70. A(C  16,C  17,O  22)          110.0667         0.348728   
     71. A(C  18,C  17,O  22)          110.6438         0.345625   
     72. A(C  16,C  17,H  23)          113.1327         0.322775   
     73. A(C  18,C  17,H  23)          112.8608         0.319983   
     74. A(O  22,C  17,H  23)          108.2991         0.311076   
     75. A(C  17,C  18,C  19)          103.0889         0.355367   
     76. A(C  17,C  18,H  24)          112.8908         0.320209   
     77. A(C  19,C  18,H  24)          112.4106         0.319732   
     78. A(C  17,C  18,H  25)          110.0427         0.319775   
     79. A(C  19,C  18,H  25)          110.6173         0.319299   
     80. A(H  24,C  18,H  25)          107.7777         0.288902   
     81. A(C  18,C  19,O  20)          106.5514         0.361754   
     82. A(C  18,C  19,H  26)          112.5078         0.319377   
     83. A(O  20,C  19,H  26)          109.0628         0.325389   
     84. A(C  18,C  19,H  27)          112.4660         0.319985   
     85. A(O  20,C  19,H  27)          107.1640         0.326013   
     86. A(H  26,C  19,H  27)          108.8837         0.289189   
     87. A(C  16,O  20,C  19)          108.3185         0.371488   
     88. A(C  17,O  22,H  28)          109.6140         0.303173   
     89. D(H   7,C   1,C   0,H   5)     82.1517         0.010890   
     90. D(C   2,C   1,C   0,O  15)     79.0868         0.010890   
     91. D(H   7,C   1,C   0,O  15)    -42.1869         0.010890   
     92. D(H   6,C   1,C   0,O   4)     77.3260         0.010890   
     93. D(H   6,C   1,C   0,O  15)   -163.5727         0.010890   
     94. D(H   6,C   1,C   0,H   5)    -39.2341         0.010890   
     95. D(H   7,C   1,C   0,O   4)   -161.2882         0.010890   
     96. D(C   2,C   1,C   0,O   4)    -40.0145         0.010890 C 
     97. D(C   2,C   1,C   0,H   5)   -156.5746         0.010890   
     98. D(H   9,C   2,C   1,H   6)    160.0776         0.009912   
     99. D(H   8,C   2,C   1,C   0)    156.5479         0.009912   
    100. D(H   8,C   2,C   1,H   6)     39.6446         0.009912   
    101. D(C   3,C   2,C   1,C   0)     35.0270         0.009912 C 
    102. D(H   8,C   2,C   1,H   7)    -81.9752         0.009912   
    103. D(H   9,C   2,C   1,C   0)    -83.0191         0.009912   
    104. D(C   3,C   2,C   1,H   6)    -81.8763         0.009912   
    105. D(H   9,C   2,C   1,H   7)     38.4578         0.009912   
    106. D(C   3,C   2,C   1,H   7)    156.5039         0.009912   
    107. D(H  11,C   3,C   2,H   9)   -143.4628         0.009774   
    108. D(O   4,C   3,C   2,H   8)   -140.0066         0.009774   
    109. D(O   4,C   3,C   2,H   9)     99.4739         0.009774   
    110. D(H  10,C   3,C   2,C   1)   -137.7432         0.009774   
    111. D(H  10,C   3,C   2,H   8)    100.4468         0.009774   
    112. D(H  10,C   3,C   2,H   9)    -20.0727         0.009774   
    113. D(H  11,C   3,C   2,C   1)     98.8667         0.009774   
    114. D(O   4,C   3,C   2,C   1)    -18.1967         0.009774 C 
    115. D(H  11,C   3,C   2,H   8)    -22.9433         0.009774   
    116. D(C   3,O   4,C   0,C   1)     29.5918         0.014035 C 
    117. D(C   3,O   4,C   0,H   5)    151.2014         0.014035   
    118. D(C   3,O   4,C   0,O  15)    -90.0710         0.014035   
    119. D(C   0,O   4,C   3,C   2)     -6.8732         0.012866 C 
    120. D(C   0,O   4,C   3,H  10)    114.8547         0.012866   
    121. D(C   0,O   4,C   3,H  11)   -127.4272         0.012866   
    122. D(C   0,O  15,C  12,C  16)    -45.0000         0.007764 C 
    123. D(C  12,O  15,C   0,O   4)    -45.0000         0.007793 C 
    124. D(C  12,O  15,C   0,H   5)     72.4193         0.007793   
    125. D(C   0,O  15,C  12,H  14)   -165.5213         0.007764   
    126. D(C   0,O  15,C  12,H  13)     75.4570         0.007764   
    127. D(C  12,O  15,C   0,C   1)   -160.3133         0.007793   
    128. D(C  17,C  16,C  12,H  13)     63.6822         0.009419   
    129. D(H  21,C  16,C  12,H  14)    179.5473         0.009419   
    130. D(C  17,C  16,C  12,O  15)   -175.2896         0.009419   
    131. D(O  20,C  16,C  12,H  13)    178.9569         0.009419   
    132. D(O  20,C  16,C  12,H  14)     62.1243         0.009419   
    133. D(O  20,C  16,C  12,O  15)    -60.0149         0.009419 C 
    134. D(C  17,C  16,C  12,H  14)    -53.1504         0.009419   
    135. D(H  21,C  16,C  12,H  13)    -63.6201         0.009419   
    136. D(H  21,C  16,C  12,O  15)     57.4081         0.009419   
    137. D(C  18,C  17,C  16,C  12)     79.0935         0.010986   
    138. D(C  18,C  17,C  16,O  20)    -39.9350         0.010986 C 
    139. D(C  18,C  17,C  16,H  21)   -156.5963         0.010986   
    140. D(O  22,C  17,C  16,C  12)   -163.5628         0.010986   
    141. D(O  22,C  17,C  16,O  20)     77.4087         0.010986   
    142. D(O  22,C  17,C  16,H  21)    -39.2526         0.010986   
    143. D(H  23,C  17,C  16,C  12)    -42.2608         0.010986   
    144. D(H  23,C  17,C  16,O  20)   -161.2893         0.010986   
    145. D(H  23,C  17,C  16,H  21)     82.0494         0.010986   
    146. D(H  24,C  18,C  17,H  23)    -81.9164         0.009952   
    147. D(C  19,C  18,C  17,O  22)    -81.9215         0.009952   
    148. D(C  19,C  18,C  17,H  23)    156.5473         0.009952   
    149. D(H  24,C  18,C  17,C  16)    156.5407         0.009952   
    150. D(C  19,C  18,C  17,C  16)     35.0044         0.009952 C 
    151. D(H  24,C  18,C  17,O  22)     39.6148         0.009952   
    152. D(H  25,C  18,C  17,C  16)    -83.0067         0.009952   
    153. D(H  25,C  18,C  17,O  22)    160.0674         0.009952   
    154. D(H  25,C  18,C  17,H  23)     38.5362         0.009952   
    155. D(H  27,C  19,C  18,H  25)   -143.4852         0.009786   
    156. D(O  20,C  19,C  18,H  24)   -140.0854         0.009786   
    157. D(O  20,C  19,C  18,H  25)     99.3829         0.009786   
    158. D(H  26,C  19,C  18,C  17)   -137.6944         0.009786   
    159. D(H  26,C  19,C  18,H  24)    100.4449         0.009786   
    160. D(H  26,C  19,C  18,H  25)    -20.0868         0.009786   
    161. D(H  27,C  19,C  18,C  17)     98.9073         0.009786   
    162. D(O  20,C  19,C  18,C  17)    -18.2246         0.009786 C 
    163. D(H  27,C  19,C  18,H  24)    -22.9534         0.009786   
    164. D(C  19,O  20,C  16,C  12)    -90.1398         0.014026   
    165. D(C  19,O  20,C  16,C  17)     29.4683         0.014026 C 
    166. D(C  19,O  20,C  16,H  21)    151.1850         0.014026   
    167. D(C  16,O  20,C  19,C  18)     -6.7700         0.012940 C 
    168. D(C  16,O  20,C  19,H  26)    114.9133         0.012940   
    169. D(C  16,O  20,C  19,H  27)   -127.3690         0.012940   
    170. D(H  28,O  22,C  17,C  16)    -55.7839         0.007727   
    171. D(H  28,O  22,C  17,C  18)     55.8843         0.007727   
    172. D(H  28,O  22,C  17,H  23)   -179.9317         0.007727   
    -----------------------------------------------------------------

Number of atoms                         .... 29
Number of degrees of freedom            .... 172

         *************************************************************
         *                GEOMETRY OPTIMIZATION CYCLE   1            *
         *************************************************************
---------------------------------
CARTESIAN COORDINATES (ANGSTROEM)
---------------------------------
  C    -21.048049   26.221963   46.251052
  C    -20.361046   27.557954   45.943986
  C    -20.328969   28.222005   47.340964
  C    -20.109933   27.022026   48.295980
  O    -20.472982   25.807014   47.535036
  H    -20.833091   25.427961   45.533042
  H    -19.344068   27.381931   45.575936
  H    -20.898080   28.156941   45.201000
  H    -19.542957   28.978000   47.433902
  H    -21.288953   28.710022   47.547999
  H    -20.732885   27.082055   49.195011
  H    -19.063918   26.913024   48.596927
  C    -23.319060   25.255001   47.135067
  H    -23.138073   25.362935   48.212075
  H    -24.401056   25.311038   46.961055
  O    -22.586036   26.394027   46.375128
  C    -22.844023   23.840016   46.700059
  C    -23.667034   22.742988   47.382998
  C    -24.956994   22.739986   46.529940
  C    -24.435937   23.052027   45.104969
  O    -23.087953   23.636046   45.268042
  H    -21.766028   23.761032   46.856101
  O    -22.933007   21.378002   47.271000
  H    -23.858084   22.944961   48.442995
  H    -25.496981   21.788976   46.577894
  H    -25.637023   23.528968   46.873927
  H    -25.073926   23.767028   44.571957
  H    -24.325895   22.152043   44.493953
  H    -22.729957   21.155029   46.218005

----------------------------
CARTESIAN COORDINATES (A.U.)
----------------------------
  NO LB      ZA    FRAG     MASS         X           Y           Z
   0 C     6.0000    0    12.011  -39.775049   49.552329   87.401822
   1 C     6.0000    0    12.011  -38.476802   52.076987   86.821551
   2 C     6.0000    0    12.011  -38.416184   53.331861   89.461458
   3 C     6.0000    0    12.011  -38.002266   51.064229   91.266175
   4 O     8.0000    0    15.999  -38.688330   48.768189   89.828199
   5 H     1.0000    0     1.008  -39.368837   48.051883   86.044979
   6 H     1.0000    0     1.008  -36.554991   51.744351   86.126038
   7 H     1.0000    0     1.008  -39.491648   53.208908   85.417510
   8 H     1.0000    0     1.008  -36.930837   54.760484   89.637085
   9 H     1.0000    0     1.008  -40.230290   54.254080   89.852697
  10 H     1.0000    0     1.008  -39.179475   51.177666   92.965098
  11 H     1.0000    0     1.008  -36.025584   50.858244   91.834883
  12 C     6.0000    0    12.011  -44.066637   47.725036   89.072367
  13 H     1.0000    0     1.008  -43.724620   47.929002   91.107619
  14 H     1.0000    0     1.008  -46.111313   47.830930   88.743532
  15 O     8.0000    0    15.999  -42.681423   49.877482   87.636291
  16 C     6.0000    0    12.011  -43.168948   45.051101   88.250322
  17 C     6.0000    0    12.011  -44.724213   42.978019   89.540890
  18 C     6.0000    0    12.011  -47.161884   42.972346   87.928843
  19 C     6.0000    0    12.011  -46.177229   43.562018   85.236038
  20 O     8.0000    0    15.999  -43.629908   44.665654   85.544202
  21 H     1.0000    0     1.008  -41.131833   44.901843   88.545199
  22 O     8.0000    0    15.999  -43.337103   40.398569   89.329245
  23 H     1.0000    0     1.008  -45.085245   43.359692   91.543993
  24 H     1.0000    0     1.008  -48.182311   41.175198   88.019464
  25 H     1.0000    0     1.008  -48.446952   44.463305   88.578884
  26 H     1.0000    0     1.008  -47.382853   44.913174   84.228792
  27 H     1.0000    0     1.008  -45.969280   41.861294   84.081386
  28 H     1.0000    0     1.008  -42.953393   39.977211   87.339371

--------------------------------
INTERNAL COORDINATES (ANGSTROEM)
--------------------------------
 C      0   0   0     0.000000000000     0.00000000     0.00000000
 C      1   0   0     1.533334275362     0.00000000     0.00000000
 C      2   1   0     1.547103422529   101.67907390     0.00000000
 C      3   2   1     1.549188819996   103.12737509    35.02687180
 O      1   2   3     1.466801281701   104.24948604   319.98542309
 H      1   2   3     1.091872245274   114.43876658   203.42640133
 H      2   1   3     1.095759553917   110.06782188   117.34000099
 H      2   1   3     1.095088580892   113.12442239   238.72597460
 H      3   2   1     1.094523183857   112.83161078   156.54780790
 H      3   2   1     1.096628013503   110.07982737   276.98070077
 H      4   3   2     1.095413164062   112.52534669   222.25678475
 H      4   3   2     1.093891219455   112.45670684    98.86663270
 C      1   2   3     2.621828751082   140.98282595    62.41132428
 H     13   1   2     1.097430635621    98.72743838   277.48346279
 H     13   1   2     1.097331308220   141.42580140    51.96634742
 O      1   2   3     1.552547583812   111.30349807    79.08752829
 C     13   1   2     1.554694503753    88.66508613   169.18592306
 C     17  13   1     1.532066251831   111.27415083   162.43280539
 C     18  17  13     1.546518024467   101.74653559    79.09330534
 C     19  18  17     1.549002905097   103.08875304    35.00441763
 O     17  13   1     1.466893315821   110.41974835   277.70713321
 H     17  13   1     1.092090197740   109.11437992    35.13067546
 O     18  17  13     1.553874190532   110.06662526   196.43709286
 H     18  17  13     1.095848985947   113.13261676   317.73911260
 H     19  18  17     1.094671183507   112.89081134   156.54066265
 H     19  18  17     1.096930717958   110.04278111   276.99332737
 H     20  19  18     1.096520861635   112.50780772   222.30563852
 H     20  19  18     1.093353099415   112.46593523    98.90732243
 H     23  18  17     1.095329630750   109.61404195   304.21607235

---------------------------
INTERNAL COORDINATES (A.U.)
---------------------------
 C      0   0   0     0.000000000000     0.00000000     0.00000000
 C      1   0   0     2.897581852189     0.00000000     0.00000000
 C      2   1   0     2.923601769431   101.67907390     0.00000000
 C      3   2   1     2.927542599525   103.12737509    35.02687180
 O      1   2   3     2.771852715300   104.24948604   319.98542309
 H      1   2   3     2.063339516798   114.43876658   203.42640133
 H      2   1   3     2.070685465531   110.06782188   117.34000099
 H      2   1   3     2.069417510270   113.12442239   238.72597460
 H      3   2   1     2.068349064717   112.83161078   156.54780790
 H      3   2   1     2.072326616307   110.07982737   276.98070077
 H      4   3   2     2.070030883569   112.52534669   222.25678475
 H      4   3   2     2.067154825070   112.45670684    98.86663270
 C      1   2   3     4.954538309586   140.98282595    62.41132428
 H     13   1   2     2.073843352299    98.72743838   277.48346279
 H     13   1   2     2.073655650713   141.42580140    51.96634742
 O      1   2   3     2.933889743286   111.30349807    79.08752829
 C     13   1   2     2.937946834006    88.66508613   169.18592306
 C     17  13   1     2.895185634984   111.27415083   162.43280539
 C     18  17  13     2.922495527415   101.74653559    79.09330534
 C     19  18  17     2.927191271282   103.08875304    35.00441763
 O     17  13   1     2.772026634581   110.41974835   277.70713321
 H     17  13   1     2.063751387269   109.11437992    35.13067546
 O     18  17  13     2.936396666673   110.06662526   196.43709286
 H     18  17  13     2.070854467574   113.13261676   317.73911260
 H     19  18  17     2.068628743523   112.89081134   156.54066265
 H     19  18  17     2.072898644826   110.04278111   276.99332737
 H     20  19  18     2.072124128621   112.50780772   222.30563852
 H     20  19  18     2.066137925568   112.46593523    98.90732243
 H     23  18  17     2.069873028488   109.61404195   304.21607235

---------------------
BASIS SET INFORMATION
---------------------
There are 3 groups of distinct atoms

 Group   1 Type C   : 10s4p contracted to 3s2p pattern {631/31}
 Group   2 Type O   : 10s4p contracted to 3s2p pattern {631/31}
 Group   3 Type H   : 4s contracted to 2s pattern {31}

Atom   0C    basis set group =>   1
Atom   1C    basis set group =>   1
Atom   2C    basis set group =>   1
Atom   3C    basis set group =>   1
Atom   4O    basis set group =>   2
Atom   5H    basis set group =>   3
Atom   6H    basis set group =>   3
Atom   7H    basis set group =>   3
Atom   8H    basis set group =>   3
Atom   9H    basis set group =>   3
Atom  10H    basis set group =>   3
Atom  11H    basis set group =>   3
Atom  12C    basis set group =>   1
Atom  13H    basis set group =>   3
Atom  14H    basis set group =>   3
Atom  15O    basis set group =>   2
Atom  16C    basis set group =>   1
Atom  17C    basis set group =>   1
Atom  18C    basis set group =>   1
Atom  19C    basis set group =>   1
Atom  20O    basis set group =>   2
Atom  21H    basis set group =>   3
Atom  22O    basis set group =>   2
Atom  23H    basis set group =>   3
Atom  24H    basis set group =>   3
Atom  25H    basis set group =>   3
Atom  26H    basis set group =>   3
Atom  27H    basis set group =>   3
Atom  28H    basis set group =>   3
------------------------------------------------------------------------------
                           ORCA GTO INTEGRAL CALCULATION
------------------------------------------------------------------------------

                         BASIS SET STATISTICS AND STARTUP INFO

 # of primitive gaussian shells          ...  246
 # of primitive gaussian functions       ...  350
 # of contracted shells                  ...   97
 # of contracted basis functions         ...  149
 Highest angular momentum                ...    1
 Maximum contraction depth               ...    6
 Integral package used                   ... LIBINT
 Integral threshhold            Thresh   ...  2.500e-11
 Primitive cut-off              TCut     ...  2.500e-12


------------------------------ INTEGRAL EVALUATION ----------------------------


 * One electron integrals 
 Pre-screening matrix                    ... done
 Shell pair data                         ... done (   0.002 sec)

-------------------------------------------------------------------------------
                                 ORCA SCF
-------------------------------------------------------------------------------

------------
SCF SETTINGS
------------
Hamiltonian:
 Density Functional     Method          .... DFT(GTOs)
 Exchange Functional    Exchange        .... B88
   X-Alpha parameter    XAlpha          ....  0.666667
   Becke's b parameter  XBeta           ....  0.004200
 Correlation Functional Correlation     .... LYP
 LDA part of GGA corr.  LDAOpt          .... VWN-5
 Gradients option       PostSCFGGA      .... off
 Hybrid DFT is turned on
   Fraction HF Exchange ScalHFX         ....  0.200000
   Scaling of DF-GGA-X  ScalDFX         ....  0.720000
   Scaling of DF-GGA-C  ScalDFC         ....  0.810000
   Scaling of DF-LDA-C  ScalLDAC        ....  1.000000
   Perturbative correction              ....  0.000000
   Density functional embedding theory  .... OFF
   NL short-range parameter             ....  4.800000


General Settings:
 Integral files         IntName         .... project_8052/ensemble_315_315
 Hartree-Fock type      HFTyp           .... RHF
 Total Charge           Charge          ....    0
 Multiplicity           Mult            ....    1
 Number of Electrons    NEL             ....  102
 Basis Dimension        Dim             ....  149
 Nuclear Repulsion      ENuc            ....    869.7360911606 Eh

Convergence Acceleration:
 DIIS                   CNVDIIS         .... on
   Start iteration      DIISMaxIt       ....    12
   Startup error        DIISStart       ....  0.200000
   # of expansion vecs  DIISMaxEq       ....     5
   Bias factor          DIISBfac        ....   1.050
   Max. coefficient     DIISMaxC        ....  10.000
 Newton-Raphson         CNVNR           .... off
 SOSCF                  CNVSOSCF        .... on
   Start iteration      SOSCFMaxIt      ....   150
   Startup grad/error   SOSCFStart      ....  0.003300
 Level Shifting         CNVShift        .... on
   Level shift para.    LevelShift      ....    0.2500
   Turn off err/grad.   ShiftErr        ....    0.0010
 Zerner damping         CNVZerner       .... off
 Static damping         CNVDamp         .... on
   Fraction old density DampFac         ....    0.7000
   Max. Damping (<1)    DampMax         ....    0.9800
   Min. Damping (>=0)   DampMin         ....    0.0000
   Turn off err/grad.   DampErr         ....    0.1000
 Fernandez-Rico         CNVRico         .... off

SCF Procedure:
 Maximum # iterations   MaxIter         ....   125
 SCF integral mode      SCFMode         .... Direct
   Integral package                     .... LIBINT
 Reset frequency        DirectResetFreq ....    20
 Integral Threshold     Thresh          ....  2.500e-11 Eh
 Primitive CutOff       TCut            ....  2.500e-12 Eh

Convergence Tolerance:
 Convergence Check Mode ConvCheckMode   .... Total+1el-Energy
 Convergence forced     ConvForced      .... 0
 Energy Change          TolE            ....  1.000e-08 Eh
 1-El. energy change                    ....  1.000e-05 Eh
 Orbital Gradient       TolG            ....  1.000e-05
 Orbital Rotation angle TolX            ....  1.000e-05
 DIIS Error             TolErr          ....  5.000e-07


Diagonalization of the overlap matrix:
Smallest eigenvalue                        ... 4.036e-03
Time for diagonalization                   ...    0.006 sec
Threshold for overlap eigenvalues          ... 1.000e-08
Number of eigenvalues below threshold      ... 0
Time for construction of square roots      ...    0.010 sec
Total time needed                          ...    0.016 sec

-------------------
DFT GRID GENERATION
-------------------

General Integration Accuracy     IntAcc      ...  4.340
Radial Grid Type                 RadialGrid  ... Gauss-Chebyshev
Angular Grid (max. acc.)         AngularGrid ... Lebedev-110
Angular grid pruning method      GridPruning ... 3 (G Style)
Weight generation scheme         WeightScheme... Becke
Basis function cutoff            BFCut       ...    1.0000e-11
Integration weight cutoff        WCut        ...    1.0000e-14
Grids for H and He will be reduced by one unit

# of grid points (after initial pruning)     ...  34472 (   0.0 sec)
# of grid points (after weights+screening)   ...  30996 (   0.4 sec)
nearest neighbour list constructed           ...    0.0 sec
Grid point re-assignment to atoms done       ...    0.0 sec
Grid point division into batches done        ...    0.1 sec
Reduced shell lists constructed in    0.7 sec

Total number of grid points                  ...    30996
Total number of batches                      ...      499
Average number of points per batch           ...       62
Average number of grid points per atom       ...     1069
Average number of shells per batch           ...    58.04 (59.84%)
Average number of basis functions per batch  ...    94.43 (63.38%)
Average number of large shells per batch     ...    41.18 (70.96%)
Average number of large basis fcns per batch ...    68.24 (72.26%)
Maximum spatial batch extension              ...  19.61, 19.48, 21.52 au
Average spatial batch extension              ...   3.36,  3.33,  3.35 au

Time for grid setup =   12.056 sec

------------------------------
INITIAL GUESS: MODEL POTENTIAL
------------------------------
Loading Hartree-Fock densities                     ... done
Calculating cut-offs                               ... done
Setting up the integral package                    ... done
Initializing the effective Hamiltonian             ... done
Starting the Coulomb interaction                   ... done (   0.8 sec)
Reading the grid                                   ... done
Mapping shells                                     ... done
Starting the XC term evaluation                    ... done (   0.7 sec)
  promolecular density results
     # of electrons  =    102.015035587
     EX              =    -83.667654303
     EC              =     -3.458463063
     EX+EC           =    -87.126117366
Transforming the Hamiltonian                       ... done (   0.0 sec)
Diagonalizing the Hamiltonian                      ... done (   0.0 sec)
Back transforming the eigenvectors                 ... done (   0.0 sec)
Now organizing SCF variables                       ... done
                      ------------------
                      INITIAL GUESS DONE (  13.8 sec)
                      ------------------
--------------
SCF ITERATIONS
--------------
ITER       Energy         Delta-E        Max-DP      RMS-DP      [F,P]     Damp
               ***  Starting incremental Fock matrix formation  ***
  0   -652.5427685517   0.000000000000 0.08019146  0.00299848  0.2519874 0.7000
  1   -652.6818981997  -0.139129648049 0.04809137  0.00205051  0.1095440 0.7000
                               ***Turning on DIIS***
  2   -652.7341571458  -0.052258946068 0.05867583  0.00329464  0.0320394 0.0000
  3   -652.8203796752  -0.086222529389 0.03195358  0.00134824  0.0595399 0.0000
  4   -652.8376022610  -0.017222585891 0.00802639  0.00042636  0.0106648 0.0000
  5   -652.8385886230  -0.000986361971 0.00264805  0.00012996  0.0041237 0.0000
                      *** Initiating the SOSCF procedure ***
                           *** Shutting down DIIS ***
                      *** Re-Reading the Fockian *** 
                      *** Removing any level shift *** 
ITER      Energy       Delta-E        Grad      Rot      Max-DP    RMS-DP
  6   -652.83865770  -0.0000690727  0.000183  0.000183  0.000865  0.000054
               *** Restarting incremental Fock matrix formation ***
  7   -652.83866039  -0.0000026934  0.000161  0.000252  0.001108  0.000035
  8   -652.83865759   0.0000027983  0.000288  0.000173  0.000763  0.000022
  9   -652.83866186  -0.0000042644  0.000023  0.000040  0.000218  0.000007
 10   -652.83866179   0.0000000699  0.000040  0.000025  0.000129  0.000004
 11   -652.83866192  -0.0000001343  0.000006  0.000006  0.000036  0.000001
 12   -652.83866192   0.0000000025  0.000009  0.000003  0.000022  0.000001
                  ***Gradient check signals convergence***
              ***Rediagonalizing the Fockian in SOSCF/NRSCF***

               *****************************************************
               *                     SUCCESS                       *
               *           SCF CONVERGED AFTER  13 CYCLES          *
               *****************************************************

Setting up the final grid:

General Integration Accuracy     IntAcc      ...  4.670
Radial Grid Type                 RadialGrid  ... Gauss-Chebyshev
Angular Grid (max. acc.)         AngularGrid ... Lebedev-302
Angular grid pruning method      GridPruning ... 3 (G Style)
Weight generation scheme         WeightScheme... Becke
Basis function cutoff            BFCut       ...    1.0000e-11
Integration weight cutoff        WCut        ...    1.0000e-14
Grids for H and He will be reduced by one unit

# of grid points (after initial pruning)     ... 135060 (   0.1 sec)
# of grid points (after weights+screening)   ... 118951 (   1.6 sec)
nearest neighbour list constructed           ...    0.0 sec
Grid point re-assignment to atoms done       ...    0.0 sec
Grid point division into batches done        ...    0.5 sec
Reduced shell lists constructed in    1.9 sec

Total number of grid points                  ...   118951
Total number of batches                      ...     1873
Average number of points per batch           ...       63
Average number of grid points per atom       ...     4102
Average number of shells per batch           ...    52.76 (54.40%)
Average number of basis functions per batch  ...    86.14 (57.81%)
Average number of large shells per batch     ...    36.83 (69.80%)
Average number of large basis fcns per batch ...    61.20 (71.04%)
Maximum spatial batch extension              ...  20.73, 19.52, 20.51 au
Average spatial batch extension              ...   2.23,  2.23,  2.28 au

Final grid set up in    8.6 sec
Final integration                            ... done (   1.9 sec)
Change in XC energy                          ...     0.001768264
Integrated number of electrons               ...   102.000160766
Previous integrated no of electrons          ...   102.015103845

----------------
TOTAL SCF ENERGY
----------------

Total Energy       :         -652.83689366 Eh          -17764.59501 eV

Components:
Nuclear Repulsion  :          869.73609116 Eh           23666.72223 eV
Electronic Energy  :        -1522.57298482 Eh          -41431.31724 eV
One Electron Energy:        -2617.57851948 Eh          -71227.93267 eV
Two Electron Energy:         1095.00553467 Eh           29796.61543 eV

Virial components:
Potential Energy   :        -1301.74196549 Eh          -35422.19971 eV
Kinetic Energy     :          648.90507183 Eh           17657.60470 eV
Virial Ratio       :            2.00605916


DFT components:
N(Alpha)           :       51.000080383064 electrons
N(Beta)            :       51.000080383064 electrons
N(Total)           :      102.000160766128 electrons
E(X)               :      -67.588946260895 Eh       
E(C)               :       -4.069741638688 Eh       
E(XC)              :      -71.658687899583 Eh       
DFET-embed. en.    :        0.000000000000 Eh       

---------------
SCF CONVERGENCE
---------------

  Last Energy change         ...   -3.9017e-09  Tolerance :   1.0000e-08
  Last MAX-Density change    ...    1.9569e-06  Tolerance :   1.0000e-07
  Last RMS-Density change    ...    1.0163e-07  Tolerance :   5.0000e-09
  Last Orbital Gradient      ...    3.6820e-07  Tolerance :   1.0000e-05
  Last Orbital Rotation      ...    6.3082e-07  Tolerance :   1.0000e-05

             **** THE GBW FILE WAS UPDATED (project_8052/ensemble_315_315.gbw) ****
             **** DENSITY FILE WAS UPDATED (project_8052/ensemble_315_315.scfp) ****
             **** ENERGY FILE WAS UPDATED (project_8052/ensemble_315_315.en.tmp) ****
             **** THE GBW FILE WAS UPDATED (project_8052/ensemble_315_315.gbw) ****
             **** DENSITY FILE WAS UPDATED (project_8052/ensemble_315_315.scfp) ****
----------------
ORBITAL ENERGIES
----------------

  NO   OCC          E(Eh)            E(eV) 
   0   2.0000     -19.147215      -521.0222 
   1   2.0000     -19.143843      -520.9304 
   2   2.0000     -19.138656      -520.7893 
   3   2.0000     -19.136227      -520.7232 
   4   2.0000     -10.278326      -279.6875 
   5   2.0000     -10.246889      -278.8320 
   6   2.0000     -10.230906      -278.3971 
   7   2.0000     -10.230790      -278.3939 
   8   2.0000     -10.230113      -278.3755 
   9   2.0000     -10.227058      -278.2924 
  10   2.0000     -10.194414      -277.4041 
  11   2.0000     -10.189372      -277.2669 
  12   2.0000     -10.186118      -277.1784 
  13   2.0000      -1.034646       -28.1541 
  14   2.0000      -1.025515       -27.9057 
  15   2.0000      -0.962344       -26.1867 
  16   2.0000      -0.952400       -25.9161 
  17   2.0000      -0.788729       -21.4624 
  18   2.0000      -0.783532       -21.3210 
  19   2.0000      -0.759712       -20.6728 
  20   2.0000      -0.730956       -19.8903 
  21   2.0000      -0.666362       -18.1326 
  22   2.0000      -0.599950       -16.3255 
  23   2.0000      -0.597674       -16.2635 
  24   2.0000      -0.592052       -16.1106 
  25   2.0000      -0.567956       -15.4549 
  26   2.0000      -0.513167       -13.9640 
  27   2.0000      -0.500803       -13.6275 
  28   2.0000      -0.491261       -13.3679 
  29   2.0000      -0.484827       -13.1928 
  30   2.0000      -0.461221       -12.5505 
  31   2.0000      -0.448222       -12.1967 
  32   2.0000      -0.436539       -11.8788 
  33   2.0000      -0.430617       -11.7177 
  34   2.0000      -0.416872       -11.3437 
  35   2.0000      -0.404041       -10.9945 
  36   2.0000      -0.400423       -10.8961 
  37   2.0000      -0.386304       -10.5119 
  38   2.0000      -0.378053       -10.2873 
  39   2.0000      -0.363238        -9.8842 
  40   2.0000      -0.357911        -9.7393 
  41   2.0000      -0.355904        -9.6846 
  42   2.0000      -0.348913        -9.4944 
  43   2.0000      -0.328966        -8.9516 
  44   2.0000      -0.318934        -8.6786 
  45   2.0000      -0.310194        -8.4408 
  46   2.0000      -0.297256        -8.0887 
  47   2.0000      -0.265396        -7.2218 
  48   2.0000      -0.261871        -7.1259 
  49   2.0000      -0.248439        -6.7604 
  50   2.0000      -0.235877        -6.4185 
  51   0.0000       0.038621         1.0509 
  52   0.0000       0.061003         1.6600 
  53   0.0000       0.080257         2.1839 
  54   0.0000       0.090265         2.4562 
  55   0.0000       0.101452         2.7606 
  56   0.0000       0.111693         3.0393 
  57   0.0000       0.114302         3.1103 
  58   0.0000       0.120295         3.2734 
  59   0.0000       0.135395         3.6843 
  60   0.0000       0.144295         3.9265 
  61   0.0000       0.150152         4.0858 
  62   0.0000       0.150630         4.0988 
  63   0.0000       0.152737         4.1562 
  64   0.0000       0.158722         4.3191 
  65   0.0000       0.163929         4.4607 
  66   0.0000       0.173734         4.7275 
  67   0.0000       0.178905         4.8683 
  68   0.0000       0.183393         4.9904 
  69   0.0000       0.200138         5.4460 
  70   0.0000       0.209235         5.6936 
  71   0.0000       0.215118         5.8537 
  72   0.0000       0.223376         6.0784 
  73   0.0000       0.227491         6.1903 
  74   0.0000       0.241577         6.5736 
  75   0.0000       0.245104         6.6696 
  76   0.0000       0.255783         6.9602 
  77   0.0000       0.263398         7.1674 
  78   0.0000       0.288462         7.8494 
  79   0.0000       0.293501         7.9866 
  80   0.0000       0.304797         8.2940 
  81   0.0000       0.529168        14.3994 
  82   0.0000       0.535296        14.5661 
  83   0.0000       0.545312        14.8387 
  84   0.0000       0.548524        14.9261 
  85   0.0000       0.557439        15.1687 
  86   0.0000       0.564615        15.3640 
  87   0.0000       0.574943        15.6450 
  88   0.0000       0.583139        15.8680 
  89   0.0000       0.590125        16.0581 
  90   0.0000       0.597124        16.2486 
  91   0.0000       0.605414        16.4742 
  92   0.0000       0.612593        16.6695 
  93   0.0000       0.624798        17.0016 
  94   0.0000       0.637507        17.3474 
  95   0.0000       0.645798        17.5731 
  96   0.0000       0.657544        17.8927 
  97   0.0000       0.671411        18.2700 
  98   0.0000       0.691002        18.8031 
  99   0.0000       0.710748        19.3404 
 100   0.0000       0.719217        19.5709 
 101   0.0000       0.769676        20.9440 
 102   0.0000       0.799890        21.7661 
 103   0.0000       0.808207        21.9924 
 104   0.0000       0.819669        22.3043 
 105   0.0000       0.829527        22.5726 
 106   0.0000       0.834860        22.7177 
 107   0.0000       0.855443        23.2778 
 108   0.0000       0.862780        23.4774 
 109   0.0000       0.873983        23.7823 
 110   0.0000       0.879621        23.9357 
 111   0.0000       0.896457        24.3938 
 112   0.0000       0.904243        24.6057 
 113   0.0000       0.908499        24.7215 
 114   0.0000       0.917753        24.9733 
 115   0.0000       0.929474        25.2923 
 116   0.0000       0.934734        25.4354 
 117   0.0000       0.947204        25.7747 
 118   0.0000       0.956092        26.0166 
 119   0.0000       0.971923        26.4474 
 120   0.0000       0.986535        26.8450 
 121   0.0000       0.997133        27.1334 
 122   0.0000       1.004338        27.3294 
 123   0.0000       1.021904        27.8074 
 124   0.0000       1.039688        28.2914 
 125   0.0000       1.057269        28.7698 
 126   0.0000       1.080221        29.3943 
 127   0.0000       1.101286        29.9675 
 128   0.0000       1.127797        30.6889 
 129   0.0000       1.154301        31.4101 
 130   0.0000       1.197155        32.5762 
 131   0.0000       1.214842        33.0575 
 132   0.0000       1.283287        34.9200 
 133   0.0000       1.305377        35.5211 
 134   0.0000       1.317064        35.8391 
 135   0.0000       1.343057        36.5464 
 136   0.0000       1.363952        37.1150 
 137   0.0000       1.408603        38.3300 
 138   0.0000       1.453410        39.5493 
 139   0.0000       1.481051        40.3015 
 140   0.0000       1.513867        41.1944 
 141   0.0000       1.551770        42.2258 
 142   0.0000       1.634463        44.4760 
 143   0.0000       1.671530        45.4847 
 144   0.0000       1.714130        46.6438 
 145   0.0000       1.848068        50.2885 
 146   0.0000       1.940123        52.7934 
 147   0.0000       2.080500        56.6133 
 148   0.0000       2.124687        57.8157 

                    ********************************
                    * MULLIKEN POPULATION ANALYSIS *
                    ********************************

-----------------------
MULLIKEN ATOMIC CHARGES
-----------------------
   0 C :    0.281924
   1 C :   -0.274120
   2 C :   -0.300603
   3 C :   -0.002114
   4 O :   -0.522312
   5 H :    0.173166
   6 H :    0.153097
   7 H :    0.164709
   8 H :    0.141104
   9 H :    0.163694
  10 H :    0.144344
  11 H :    0.143937
  12 C :   -0.003025
  13 H :    0.140547
  14 H :    0.139655
  15 O :   -0.519242
  16 C :    0.045819
  17 C :    0.065610
  18 C :   -0.309956
  19 C :   -0.027964
  20 O :   -0.516021
  21 H :    0.197009
  22 O :   -0.593933
  23 H :    0.155942
  24 H :    0.164497
  25 H :    0.147585
  26 H :    0.152199
  27 H :    0.143483
  28 H :    0.350969
Sum of atomic charges:   -0.0000000

--------------------------------
MULLIKEN REDUCED ORBITAL CHARGES
--------------------------------
  0 C s       :     3.235969  s :     3.235969
      pz      :     0.788354  p :     2.482107
      px      :     0.688048
      py      :     1.005705
  1 C s       :     3.313574  s :     3.313574
      pz      :     0.985558  p :     2.960546
      px      :     1.031395
      py      :     0.943594
  2 C s       :     3.315246  s :     3.315246
      pz      :     0.908853  p :     2.985357
      px      :     1.087131
      py      :     0.989374
  3 C s       :     3.259617  s :     3.259617
      pz      :     0.938226  p :     2.742497
      px      :     1.058493
      py      :     0.745777
  4 O s       :     3.942699  s :     3.942699
      pz      :     1.322899  p :     4.579613
      px      :     1.737802
      py      :     1.518913
  5 H s       :     0.826834  s :     0.826834
  6 H s       :     0.846903  s :     0.846903
  7 H s       :     0.835291  s :     0.835291
  8 H s       :     0.858896  s :     0.858896
  9 H s       :     0.836306  s :     0.836306
 10 H s       :     0.855656  s :     0.855656
 11 H s       :     0.856063  s :     0.856063
 12 C s       :     3.282470  s :     3.282470
      pz      :     0.961261  p :     2.720555
      px      :     0.965417
      py      :     0.793877
 13 H s       :     0.859453  s :     0.859453
 14 H s       :     0.860345  s :     0.860345
 15 O s       :     3.952060  s :     3.952060
      pz      :     1.743286  p :     4.567181
      px      :     1.254803
      py      :     1.569092
 16 C s       :     3.286231  s :     3.286231
      pz      :     0.667537  p :     2.667950
      px      :     1.101397
      py      :     0.899016
 17 C s       :     3.307047  s :     3.307047
      pz      :     1.044021  p :     2.627343
      px      :     0.859245
      py      :     0.724077
 18 C s       :     3.317642  s :     3.317642
      pz      :     0.925483  p :     2.992314
      px      :     0.967542
      py      :     1.099289
 19 C s       :     3.266903  s :     3.266903
      pz      :     0.980348  p :     2.761060
      px      :     0.753523
      py      :     1.027189
 20 O s       :     3.943812  s :     3.943812
      pz      :     1.373735  p :     4.572209
      px      :     1.412219
      py      :     1.786255
 21 H s       :     0.802991  s :     0.802991
 22 O s       :     3.950624  s :     3.950624
      pz      :     1.394327  p :     4.643309
      px      :     1.787957
      py      :     1.461025
 23 H s       :     0.844058  s :     0.844058
 24 H s       :     0.835503  s :     0.835503
 25 H s       :     0.852415  s :     0.852415
 26 H s       :     0.847801  s :     0.847801
 27 H s       :     0.856517  s :     0.856517
 28 H s       :     0.649031  s :     0.649031


                     *******************************
                     * LOEWDIN POPULATION ANALYSIS *
                     *******************************

----------------------
LOEWDIN ATOMIC CHARGES
----------------------
   0 C :    0.182704
   1 C :   -0.212450
   2 C :   -0.217176
   3 C :   -0.029179
   4 O :   -0.328228
   5 H :    0.112625
   6 H :    0.119120
   7 H :    0.128896
   8 H :    0.113143
   9 H :    0.119560
  10 H :    0.103232
  11 H :    0.102903
  12 C :   -0.042122
  13 H :    0.104391
  14 H :    0.110078
  15 O :   -0.359101
  16 C :    0.007576
  17 C :    0.043291
  18 C :   -0.239212
  19 C :   -0.039281
  20 O :   -0.327161
  21 H :    0.132417
  22 O :   -0.441381
  23 H :    0.120967
  24 H :    0.127279
  25 H :    0.113034
  26 H :    0.106695
  27 H :    0.100349
  28 H :    0.287031

-------------------------------
LOEWDIN REDUCED ORBITAL CHARGES
-------------------------------
  0 C s       :     2.981416  s :     2.981416
      pz      :     0.914364  p :     2.835880
      px      :     0.830904
      py      :     1.090611
  1 C s       :     2.974274  s :     2.974274
      pz      :     1.077980  p :     3.238176
      px      :     1.105957
      py      :     1.054239
  2 C s       :     2.973005  s :     2.973005
      pz      :     1.032337  p :     3.244171
      px      :     1.133510
      py      :     1.078323
  3 C s       :     2.983663  s :     2.983663
      pz      :     1.037767  p :     3.045515
      px      :     1.119766
      py      :     0.887981
  4 O s       :     3.607234  s :     3.607234
      pz      :     1.385507  p :     4.720993
      px      :     1.768979
      py      :     1.566507
  5 H s       :     0.887375  s :     0.887375
  6 H s       :     0.880880  s :     0.880880
  7 H s       :     0.871104  s :     0.871104
  8 H s       :     0.886857  s :     0.886857
  9 H s       :     0.880440  s :     0.880440
 10 H s       :     0.896768  s :     0.896768
 11 H s       :     0.897097  s :     0.897097
 12 C s       :     3.000338  s :     3.000338
      pz      :     1.050488  p :     3.041784
      px      :     1.055545
      py      :     0.935751
 13 H s       :     0.895609  s :     0.895609
 14 H s       :     0.889922  s :     0.889922
 15 O s       :     3.654621  s :     3.654621
      pz      :     1.776266  p :     4.704481
      px      :     1.326102
      py      :     1.602112
 16 C s       :     2.970087  s :     2.970087
      pz      :     0.837733  p :     3.022337
      px      :     1.130968
      py      :     1.053636
 17 C s       :     2.973837  s :     2.973837
      pz      :     1.109948  p :     2.982872
      px      :     0.999128
      py      :     0.873795
 18 C s       :     2.982687  s :     2.982687
      pz      :     1.048684  p :     3.256525
      px      :     1.075352
      py      :     1.132489
 19 C s       :     2.983091  s :     2.983091
      pz      :     1.085096  p :     3.056190
      px      :     0.882626
      py      :     1.088467
 20 O s       :     3.602161  s :     3.602161
      pz      :     1.439716  p :     4.725000
      px      :     1.472653
      py      :     1.812632
 21 H s       :     0.867583  s :     0.867583
 22 O s       :     3.693720  s :     3.693720
      pz      :     1.432544  p :     4.747661
      px      :     1.807847
      py      :     1.507270
 23 H s       :     0.879033  s :     0.879033
 24 H s       :     0.872721  s :     0.872721
 25 H s       :     0.886966  s :     0.886966
 26 H s       :     0.893305  s :     0.893305
 27 H s       :     0.899651  s :     0.899651
 28 H s       :     0.712969  s :     0.712969


                      *****************************
                      * MAYER POPULATION ANALYSIS *
                      *****************************

  NA   - Mulliken gross atomic population
  ZA   - Total nuclear charge
  QA   - Mulliken gross atomic charge
  VA   - Mayer's total valence
  BVA  - Mayer's bonded valence
  FA   - Mayer's free valence

  ATOM       NA         ZA         QA         VA         BVA        FA
  0 C      5.7181     6.0000     0.2819     3.6310     3.6310    -0.0000
  1 C      6.2741     6.0000    -0.2741     3.7316     3.7316    -0.0000
  2 C      6.3006     6.0000    -0.3006     3.7637     3.7637    -0.0000
  3 C      6.0021     6.0000    -0.0021     3.6579     3.6579    -0.0000
  4 O      8.5223     8.0000    -0.5223     1.7824     1.7824     0.0000
  5 H      0.8268     1.0000     0.1732     0.9226     0.9226    -0.0000
  6 H      0.8469     1.0000     0.1531     0.9306     0.9306    -0.0000
  7 H      0.8353     1.0000     0.1647     0.9365     0.9365    -0.0000
  8 H      0.8589     1.0000     0.1411     0.9364     0.9364     0.0000
  9 H      0.8363     1.0000     0.1637     0.9337     0.9337    -0.0000
 10 H      0.8557     1.0000     0.1443     0.9271     0.9271    -0.0000
 11 H      0.8561     1.0000     0.1439     0.9285     0.9285    -0.0000
 12 C      6.0030     6.0000    -0.0030     3.6415     3.6415     0.0000
 13 H      0.8595     1.0000     0.1405     0.9288     0.9288     0.0000
 14 H      0.8603     1.0000     0.1397     0.9397     0.9397    -0.0000
 15 O      8.5192     8.0000    -0.5192     1.7886     1.7886    -0.0000
 16 C      5.9542     6.0000     0.0458     3.5605     3.5605     0.0000
 17 C      5.9344     6.0000     0.0656     3.6369     3.6369    -0.0000
 18 C      6.3100     6.0000    -0.3100     3.7029     3.7029     0.0000
 19 C      6.0280     6.0000    -0.0280     3.6669     3.6669     0.0000
 20 O      8.5160     8.0000    -0.5160     1.7657     1.7657     0.0000
 21 H      0.8030     1.0000     0.1970     0.9352     0.9352    -0.0000
 22 O      8.5939     8.0000    -0.5939     1.7613     1.7613    -0.0000
 23 H      0.8441     1.0000     0.1559     0.9384     0.9384    -0.0000
 24 H      0.8355     1.0000     0.1645     0.9389     0.9389     0.0000
 25 H      0.8524     1.0000     0.1476     0.9340     0.9340     0.0000
 26 H      0.8478     1.0000     0.1522     0.9262     0.9262     0.0000
 27 H      0.8565     1.0000     0.1435     0.9291     0.9291    -0.0000
 28 H      0.6490     1.0000     0.3510     0.8475     0.8475    -0.0000

  Mayer bond orders larger than 0.100000
B(  0-C ,  1-C ) :   0.9442 B(  0-C ,  4-O ) :   0.8745 B(  0-C ,  5-H ) :   0.9120 
B(  0-C , 15-O ) :   0.8533 B(  1-C ,  2-C ) :   0.9550 B(  1-C ,  6-H ) :   0.9359 
B(  1-C ,  7-H ) :   0.9339 B(  2-C ,  3-C ) :   0.9549 B(  2-C ,  8-H ) :   0.9447 
B(  2-C ,  9-H ) :   0.9442 B(  3-C ,  4-O ) :   0.8341 B(  3-C , 10-H ) :   0.9353 
B(  3-C , 11-H ) :   0.9397 B( 12-C , 13-H ) :   0.9110 B( 12-C , 14-H ) :   0.9291 
B( 12-C , 15-O ) :   0.8676 B( 12-C , 16-C ) :   0.8830 B( 16-C , 17-C ) :   0.8886 
B( 16-C , 20-O ) :   0.8478 B( 16-C , 21-H ) :   0.9088 B( 17-C , 18-C ) :   0.9174 
B( 17-C , 22-O ) :   0.8904 B( 17-C , 23-H ) :   0.9311 B( 18-C , 19-C ) :   0.9384 
B( 18-C , 24-H ) :   0.9367 B( 18-C , 25-H ) :   0.9296 B( 19-C , 20-O ) :   0.8548 
B( 19-C , 26-H ) :   0.9327 B( 19-C , 27-H ) :   0.9371 B( 22-O , 28-H ) :   0.8075 


-------
TIMINGS
-------

Total SCF time: 0 days 0 hours 3 min 34 sec 

Total time                  ....     214.572 sec
Sum of individual times     ....     213.406 sec  ( 99.5%)

Fock matrix formation       ....     190.575 sec  ( 88.8%)
  XC integration            ....      22.128 sec  ( 11.6% of F)
    Basis function eval.    ....       4.070 sec  ( 18.4% of XC)
    Density eval.           ....       2.206 sec  ( 10.0% of XC)
    XC-Functional eval.     ....       1.031 sec  (  4.7% of XC)
    XC-Potential eval.      ....       2.374 sec  ( 10.7% of XC)
Diagonalization             ....       0.121 sec  (  0.1%)
Density matrix formation    ....       0.008 sec  (  0.0%)
Population analysis         ....       0.017 sec  (  0.0%)
Initial guess               ....       1.761 sec  (  0.8%)
Orbital Transformation      ....       0.000 sec  (  0.0%)
Orbital Orthonormalization  ....       0.000 sec  (  0.0%)
DIIS solution               ....       0.109 sec  (  0.1%)
SOSCF solution              ....       0.152 sec  (  0.1%)
Grid generation             ....      20.664 sec  (  9.6%)

-------------------------   --------------------
FINAL SINGLE POINT ENERGY      -652.836893657019
-------------------------   --------------------

------------------------------------------------------------------------------
                         ORCA SCF GRADIENT CALCULATION
------------------------------------------------------------------------------

Gradient of the Kohn-Sham DFT energy:
Kohn-Sham wavefunction type      ... RKS
Hartree-Fock exchange scaling    ...    0.200
Number of operators              ...    1
Number of atoms                  ...   29
Basis set dimensions             ...  149
Integral neglect threshold       ... 2.5e-11
Integral primitive cutoff        ... 2.5e-12

Nuclear repulsion gradient       ... done
One Electron Gradient            ... done
Pre-screening matrix             ... done
Starting the two electron gradient:
Two electron gradient done
Exchange-correlation gradient    ... done

------------------
CARTESIAN GRADIENT
------------------

   1   C   :    0.019890401    0.011226382   -0.011806438
   2   C   :    0.016315391   -0.004420560   -0.004485213
   3   C   :    0.000026278   -0.000700181   -0.001999800
   4   C   :   -0.000621982   -0.004921294   -0.003589161
   5   O   :    0.006608055   -0.004971774    0.012326201
   6   H   :    0.004542361    0.000794806   -0.001603343
   7   H   :    0.001118583    0.004007804    0.000288182
   8   H   :    0.000508275    0.002044913   -0.001135224
   9   H   :   -0.000873822    0.000751332    0.000015402
  10   H   :   -0.000698798    0.001817391    0.001185914
  11   H   :   -0.000501185    0.000753278    0.000993261
  12   H   :   -0.000261627    0.000942823    0.000448276
  13   C   :   -0.029015728   -0.002212827    0.012076729
  14   H   :   -0.002505512   -0.003790578    0.001468596
  15   H   :   -0.006076613   -0.015125498    0.007261670
  16   O   :   -0.011517809    0.019369887   -0.011011895
  17   C   :   -0.001171907   -0.015720289   -0.002421659
  18   C   :   -0.011643811    0.024435131    0.016360084
  19   C   :   -0.001791977    0.003011293    0.002461645
  20   C   :    0.003244061   -0.002461590    0.001634431
  21   O   :   -0.000015216    0.003613173    0.000087838
  22   H   :    0.002258457    0.005027134   -0.002007341
  23   O   :    0.005789968   -0.014703418    0.049104108
  24   H   :   -0.005869050    0.010514903    0.001346644
  25   H   :   -0.002386520   -0.000188739   -0.002066585
  26   H   :    0.000243679    0.000942162   -0.000790299
  27   H   :   -0.000709175    0.001344396   -0.000133239
  28   H   :    0.000568075    0.000650075    0.000934601
  29   H   :    0.014547150   -0.022030135   -0.064943385

Difference to translation invariance:
           :    0.0000000001   -0.0000000001   -0.0000000001

Norm of the cartesian gradient     ...    0.1110236576
RMS gradient                       ...    0.0119029855
MAX gradient                       ...    0.0649433846

-------
TIMINGS
-------

Total SCF gradient time            ...       44.703 sec

One electron gradient       ....       0.371 sec  (  0.8%)
Prescreening matrices       ....       0.063 sec  (  0.1%)
Two electron gradient       ....      23.601 sec  ( 52.8%)
XC gradient                 ....      14.518 sec  ( 32.5%)
------------------------------------------------------------------------------
                         ORCA GEOMETRY RELAXATION STEP
------------------------------------------------------------------------------

Reading the OPT-File                    .... done
Getting information on internals        .... done
Copying old internal coords+grads       .... done
Making the new internal coordinates     .... (new redundants).... done
Validating the new internal coordinates .... (new redundants).... done
Calculating the B-matrix                .... done
Calculating the G,G- and P matrices     .... done
Transforming gradient to internals      .... done
Projecting the internal gradient        .... done
Number of atoms                         ....  29
Number of internal coordinates          .... 172
Current Energy                          ....  -652.836893657 Eh
Current gradient norm                   ....     0.111023658 Eh/bohr
Maximum allowed component of the step   ....  0.300
Current trust radius                    ....  0.300
Evaluating the initial hessian          ....  (Almloef) done
Projecting the Hessian                  .... done
Forming the augmented Hessian           .... done
Diagonalizing the augmented Hessian     .... done
Last element of RFO vector              ....  0.942043429
Lowest eigenvalues of augmented Hessian:
 -0.038710881  0.007830721  0.033035112  0.033088843  0.036644166
Length of the computed step             ....  0.356131086
Warning: the length of the step is outside the trust region - taking restricted step instead
The input lambda is                     ....    -0.038711
   iter:   1  x=   -0.074335  g=    1.033823 f(x)=     0.036829
   iter:   2  x=   -0.088471  g=    0.617591 f(x)=     0.008730
   iter:   3  x=   -0.089677  g=    0.530826 f(x)=     0.000640
   iter:   4  x=   -0.089684  g=    0.524396 f(x)=     0.000004
   iter:   5  x=   -0.089684  g=    0.524357 f(x)=     0.000000
   iter:   6  x=   -0.089684  g=    0.524357 f(x)=    -0.000000
The output lambda is                    ....    -0.089684 (6 iterations)
The final length of the internal step   ....  0.300000000
Converting the step to cartesian space:
 Initial RMS(Int)=    0.0228747855
Transforming coordinates:
 Iter   0:  RMS(Cart)=    0.0816278744 RMS(Int)=    0.0228848189
 Iter   1:  RMS(Cart)=    0.0009140531 RMS(Int)=    0.0004555857
 Iter   2:  RMS(Cart)=    0.0000439472 RMS(Int)=    0.0000232259
 Iter   3:  RMS(Cart)=    0.0000033222 RMS(Int)=    0.0000016272
 Iter   4:  RMS(Cart)=    0.0000002642 RMS(Int)=    0.0000001210
 Iter   5:  RMS(Cart)=    0.0000000217 RMS(Int)=    0.0000000097
Imposing constraints:
 Iter   0:  RMS(Cart)=    0.0001066411 RMS(Int)=    0.0000295310
 Iter   1:  RMS(Cart)=    0.0000524988 RMS(Int)=    0.0000162650
 Iter   2:  RMS(Cart)=    0.0000264041 RMS(Int)=    0.0000101530
 Iter   3:  RMS(Cart)=    0.0000136624 RMS(Int)=    0.0000074843
 Iter   4:  RMS(Cart)=    0.0000073455 RMS(Int)=    0.0000063370
 Iter   5:  RMS(Cart)=    0.0000041587 RMS(Int)=    0.0000057898
 Iter   6:  RMS(Cart)=    0.0000025231 RMS(Int)=    0.0000054692
 Iter   7:  RMS(Cart)=    0.0000016759 RMS(Int)=    0.0000052380
 Iter   8:  RMS(Cart)=    0.0000012403 RMS(Int)=    0.0000050462
 Iter   9:  RMS(Cart)=    0.0000010198 RMS(Int)=    0.0000048743
 Iter  10:  RMS(Cart)=    0.0000009076 RMS(Int)=    0.0000047144
 Iter  11:  RMS(Cart)=    0.0000008466 RMS(Int)=    0.0000045627
 Iter  12:  RMS(Cart)=    0.0000008086 RMS(Int)=    0.0000044175
 Iter  13:  RMS(Cart)=    0.0000007804 RMS(Int)=    0.0000042779
 Iter  14:  RMS(Cart)=    0.0000007563 RMS(Int)=    0.0000041434
[...]
  29   2.0000      -0.485721       -13.2171 
  30   2.0000      -0.473175       -12.8757 
  31   2.0000      -0.458222       -12.4689 
  32   2.0000      -0.448231       -12.1970 
  33   2.0000      -0.440345       -11.9824 
  34   2.0000      -0.418824       -11.3968 
  35   2.0000      -0.404227       -10.9996 
  36   2.0000      -0.401008       -10.9120 
  37   2.0000      -0.392299       -10.6750 
  38   2.0000      -0.377443       -10.2707 
  39   2.0000      -0.366184        -9.9644 
  40   2.0000      -0.359817        -9.7911 
  41   2.0000      -0.355554        -9.6751 
  42   2.0000      -0.346913        -9.4400 
  43   2.0000      -0.333160        -9.0657 
  44   2.0000      -0.325887        -8.8678 
  45   2.0000      -0.309277        -8.4158 
  46   2.0000      -0.296146        -8.0585 
  47   2.0000      -0.272268        -7.4088 
  48   2.0000      -0.264897        -7.2082 
  49   2.0000      -0.253320        -6.8932 
  50   2.0000      -0.238294        -6.4843 
  51   0.0000       0.066643         1.8134 
  52   0.0000       0.084796         2.3074 
  53   0.0000       0.089135         2.4255 
  54   0.0000       0.099398         2.7048 
  55   0.0000       0.104384         2.8404 
  56   0.0000       0.115384         3.1397 
  57   0.0000       0.120794         3.2870 
  58   0.0000       0.127029         3.4566 
  59   0.0000       0.142156         3.8683 
  60   0.0000       0.146369         3.9829 
  61   0.0000       0.154336         4.1997 
  62   0.0000       0.155825         4.2402 
  63   0.0000       0.160257         4.3608 
  64   0.0000       0.166050         4.5184 
  65   0.0000       0.170052         4.6274 
  66   0.0000       0.179763         4.8916 
  67   0.0000       0.191267         5.2046 
  68   0.0000       0.194589         5.2950 
  69   0.0000       0.208471         5.6728 
  70   0.0000       0.217202         5.9104 
  71   0.0000       0.222714         6.0604 
  72   0.0000       0.227421         6.1884 
  73   0.0000       0.235384         6.4051 
  74   0.0000       0.247281         6.7289 
  75   0.0000       0.258607         7.0371 
  76   0.0000       0.264415         7.1951 
  77   0.0000       0.279712         7.6114 
  78   0.0000       0.294788         8.0216 
  79   0.0000       0.297836         8.1045 
  80   0.0000       0.316444         8.6109 
  81   0.0000       0.530851        14.4452 
  82   0.0000       0.539800        14.6887 
  83   0.0000       0.548246        14.9185 
  84   0.0000       0.549355        14.9487 
  85   0.0000       0.561017        15.2660 
  86   0.0000       0.568508        15.4699 
  87   0.0000       0.575052        15.6480 
  88   0.0000       0.583609        15.8808 
  89   0.0000       0.594894        16.1879 
  90   0.0000       0.597065        16.2470 
  91   0.0000       0.609383        16.5821 
  92   0.0000       0.623263        16.9599 
  93   0.0000       0.627320        17.0703 
  94   0.0000       0.641057        17.4440 
  95   0.0000       0.649156        17.6644 
  96   0.0000       0.660727        17.9793 
  97   0.0000       0.678569        18.4648 
  98   0.0000       0.695276        18.9194 
  99   0.0000       0.716850        19.5065 
 100   0.0000       0.729866        19.8607 
 101   0.0000       0.781528        21.2665 
 102   0.0000       0.807511        21.9735 
 103   0.0000       0.820308        22.3217 
 104   0.0000       0.829327        22.5671 
 105   0.0000       0.837371        22.7860 
 106   0.0000       0.849311        23.1109 
 107   0.0000       0.852680        23.2026 
 108   0.0000       0.864374        23.5208 
 109   0.0000       0.873372        23.7657 
 110   0.0000       0.879913        23.9437 
 111   0.0000       0.900036        24.4912 
 112   0.0000       0.904371        24.6092 
 113   0.0000       0.914581        24.8870 
 114   0.0000       0.920434        25.0463 
 115   0.0000       0.928250        25.2590 
 116   0.0000       0.935400        25.4535 
 117   0.0000       0.945364        25.7247 
 118   0.0000       0.957074        26.0433 
 119   0.0000       0.976022        26.5589 
 120   0.0000       0.983048        26.7501 
 121   0.0000       0.998438        27.1689 
 122   0.0000       1.008455        27.4415 
 123   0.0000       1.017137        27.6777 
 124   0.0000       1.039625        28.2896 
 125   0.0000       1.051208        28.6048 
 126   0.0000       1.097513        29.8649 
 127   0.0000       1.106386        30.1063 
 128   0.0000       1.128636        30.7118 
 129   0.0000       1.151349        31.3298 
 130   0.0000       1.212614        32.9969 
 131   0.0000       1.228577        33.4313 
 132   0.0000       1.271611        34.6023 
 133   0.0000       1.311539        35.6888 
 134   0.0000       1.324548        36.0428 
 135   0.0000       1.351576        36.7782 
 136   0.0000       1.371677        37.3252 
 137   0.0000       1.419749        38.6333 
 138   0.0000       1.456509        39.6336 
 139   0.0000       1.490713        40.5644 
 140   0.0000       1.557235        42.3745 
 141   0.0000       1.580656        43.0118 
 142   0.0000       1.675319        45.5877 
 143   0.0000       1.677392        45.6442 
 144   0.0000       1.736573        47.2545 
 145   0.0000       1.890155        51.4337 
 146   0.0000       1.991234        54.1842 
 147   0.0000       2.092319        56.9349 
 148   0.0000       2.175710        59.2041 

                    ********************************
                    * MULLIKEN POPULATION ANALYSIS *
                    ********************************

-----------------------
MULLIKEN ATOMIC CHARGES
-----------------------
   0 C :    0.281251
   1 C :   -0.260417
   2 C :   -0.299828
   3 C :   -0.006824
   4 O :   -0.522780
   5 H :    0.167577
   6 H :    0.144799
   7 H :    0.161620
   8 H :    0.141504
   9 H :    0.160040
  10 H :    0.143302
  11 H :    0.145651
  12 C :    0.014503
  13 H :    0.136576
  14 H :    0.145431
  15 O :   -0.524101
  16 C :    0.027319
  17 C :    0.076896
  18 C :   -0.293957
  19 C :   -0.032437
  20 O :   -0.521455
  21 H :    0.194117
  22 O :   -0.601645
  23 H :    0.152835
  24 H :    0.162680
  25 H :    0.143065
  26 H :    0.151312
  27 H :    0.147423
  28 H :    0.365542
Sum of atomic charges:   -0.0000000

--------------------------------
MULLIKEN REDUCED ORBITAL CHARGES
--------------------------------
  0 C s       :     3.198867  s :     3.198867
      pz      :     0.817624  p :     2.519882
      px      :     0.682815
      py      :     1.019443
  1 C s       :     3.306797  s :     3.306797
      pz      :     0.971280  p :     2.953619
      px      :     1.046020
      py      :     0.936320
  2 C s       :     3.314219  s :     3.314219
      pz      :     0.916668  p :     2.985609
      px      :     1.081519
      py      :     0.987422
  3 C s       :     3.263271  s :     3.263271
      pz      :     0.928469  p :     2.743553
      px      :     1.062274
      py      :     0.752810
  4 O s       :     3.939893  s :     3.939893
      pz      :     1.329000  p :     4.582887
      px      :     1.726801
      py      :     1.527087
  5 H s       :     0.832423  s :     0.832423
  6 H s       :     0.855201  s :     0.855201
  7 H s       :     0.838380  s :     0.838380
  8 H s       :     0.858496  s :     0.858496
  9 H s       :     0.839960  s :     0.839960
 10 H s       :     0.856698  s :     0.856698
 11 H s       :     0.854349  s :     0.854349
 12 C s       :     3.248661  s :     3.248661
      pz      :     0.967569  p :     2.736836
      px      :     0.962393
      py      :     0.806874
 13 H s       :     0.863424  s :     0.863424
 14 H s       :     0.854569  s :     0.854569
 15 O s       :     3.929044  s :     3.929044
      pz      :     1.739652  p :     4.595057
      px      :     1.262870
      py      :     1.592535
 16 C s       :     3.284827  s :     3.284827
      pz      :     0.670834  p :     2.687853
      px      :     1.087085
      py      :     0.929934
 17 C s       :     3.268739  s :     3.268739
      pz      :     1.069840  p :     2.654364
      px      :     0.861907
      py      :     0.722617
 18 C s       :     3.312688  s :     3.312688
      pz      :     0.919872  p :     2.981269
      px      :     0.967194
      py      :     1.094203
 19 C s       :     3.269997  s :     3.269997
      pz      :     0.986958  p :     2.762440
      px      :     0.743752
      py      :     1.031730
 20 O s       :     3.944319  s :     3.944319
      pz      :     1.379792  p :     4.577136
      px      :     1.413953
      py      :     1.783392
 21 H s       :     0.805883  s :     0.805883
 22 O s       :     3.919996  s :     3.919996
      pz      :     1.490001  p :     4.681650
      px      :     1.716690
      py      :     1.474959
 23 H s       :     0.847165  s :     0.847165
 24 H s       :     0.837320  s :     0.837320
 25 H s       :     0.856935  s :     0.856935
 26 H s       :     0.848688  s :     0.848688
 27 H s       :     0.852577  s :     0.852577
 28 H s       :     0.634458  s :     0.634458


                     *******************************
                     * LOEWDIN POPULATION ANALYSIS *
                     *******************************

----------------------
LOEWDIN ATOMIC CHARGES
----------------------
   0 C :    0.170391
   1 C :   -0.212076
   2 C :   -0.216698
   3 C :   -0.028862
   4 O :   -0.334688
   5 H :    0.106269
   6 H :    0.113859
   7 H :    0.126802
   8 H :    0.113694
   9 H :    0.118034
  10 H :    0.102637
  11 H :    0.104121
  12 C :   -0.040716
  13 H :    0.100483
  14 H :    0.110779
  15 O :   -0.321982
  16 C :   -0.002509
  17 C :    0.038197
  18 C :   -0.240746
  19 C :   -0.038573
  20 O :   -0.330942
  21 H :    0.128842
  22 O :   -0.414007
  23 H :    0.116046
  24 H :    0.126601
  25 H :    0.112268
  26 H :    0.106313
  27 H :    0.102810
  28 H :    0.283652

-------------------------------
LOEWDIN REDUCED ORBITAL CHARGES
-------------------------------
  0 C s       :     2.953168  s :     2.953168
      pz      :     0.932904  p :     2.876441
      px      :     0.849771
      py      :     1.093766
  1 C s       :     2.974452  s :     2.974452
      pz      :     1.072521  p :     3.237623
      px      :     1.113131
      py      :     1.051971
  2 C s       :     2.970824  s :     2.970824
      pz      :     1.037196  p :     3.245874
      px      :     1.130909
      py      :     1.077769
  3 C s       :     2.985378  s :     2.985378
      pz      :     1.028369  p :     3.043484
      px      :     1.123297
      py      :     0.891818
  4 O s       :     3.602839  s :     3.602839
      pz      :     1.393878  p :     4.731849
      px      :     1.762401
      py      :     1.575570
  5 H s       :     0.893731  s :     0.893731
  6 H s       :     0.886141  s :     0.886141
  7 H s       :     0.873198  s :     0.873198
  8 H s       :     0.886306  s :     0.886306
  9 H s       :     0.881966  s :     0.881966
 10 H s       :     0.897363  s :     0.897363
 11 H s       :     0.895879  s :     0.895879
 12 C s       :     2.975233  s :     2.975233
      pz      :     1.059319  p :     3.065483
      px      :     1.045819
      py      :     0.960345
 13 H s       :     0.899517  s :     0.899517
 14 H s       :     0.889221  s :     0.889221
 15 O s       :     3.577870  s :     3.577870
      pz      :     1.775050  p :     4.744112
      px      :     1.343853
      py      :     1.625208
 16 C s       :     2.966695  s :     2.966695
      pz      :     0.842808  p :     3.035814
      px      :     1.125613
      py      :     1.067393
 17 C s       :     2.952669  s :     2.952669
      pz      :     1.114915  p :     3.009133
      px      :     1.005250
      py      :     0.888968
 18 C s       :     2.985171  s :     2.985171
      pz      :     1.045643  p :     3.255575
      px      :     1.077306
      py      :     1.132626
 19 C s       :     2.984168  s :     2.984168
      pz      :     1.087301  p :     3.054405
      px      :     0.874895
      py      :     1.092209
 20 O s       :     3.602751  s :     3.602751
      pz      :     1.444723  p :     4.728191
      px      :     1.473345
      py      :     1.810123
 21 H s       :     0.871158  s :     0.871158
 22 O s       :     3.613276  s :     3.613276
      pz      :     1.534672  p :     4.800731
      px      :     1.740324
      py      :     1.525734
 23 H s       :     0.883954  s :     0.883954
 24 H s       :     0.873399  s :     0.873399
 25 H s       :     0.887732  s :     0.887732
 26 H s       :     0.893687  s :     0.893687
 27 H s       :     0.897190  s :     0.897190
 28 H s       :     0.716348  s :     0.716348


                      *****************************
                      * MAYER POPULATION ANALYSIS *
                      *****************************

  NA   - Mulliken gross atomic population
  ZA   - Total nuclear charge
  QA   - Mulliken gross atomic charge
  VA   - Mayer's total valence
  BVA  - Mayer's bonded valence
  FA   - Mayer's free valence

  ATOM       NA         ZA         QA         VA         BVA        FA
  0 C      5.7187     6.0000     0.2813     3.6456     3.6456    -0.0000
  1 C      6.2604     6.0000    -0.2604     3.7302     3.7302    -0.0000
  2 C      6.2998     6.0000    -0.2998     3.7662     3.7662     0.0000
  3 C      6.0068     6.0000    -0.0068     3.6608     3.6608    -0.0000
  4 O      8.5228     8.0000    -0.5228     1.7679     1.7679    -0.0000
  5 H      0.8324     1.0000     0.1676     0.9257     0.9257     0.0000
  6 H      0.8552     1.0000     0.1448     0.9337     0.9337     0.0000
  7 H      0.8384     1.0000     0.1616     0.9389     0.9389    -0.0000
  8 H      0.8585     1.0000     0.1415     0.9368     0.9368     0.0000
  9 H      0.8400     1.0000     0.1600     0.9354     0.9354     0.0000
 10 H      0.8567     1.0000     0.1433     0.9272     0.9272     0.0000
 11 H      0.8543     1.0000     0.1457     0.9289     0.9289     0.0000
 12 C      5.9855     6.0000     0.0145     3.6316     3.6316    -0.0000
 13 H      0.8634     1.0000     0.1366     0.9306     0.9306     0.0000
 14 H      0.8546     1.0000     0.1454     0.9391     0.9391     0.0000
 15 O      8.5241     8.0000    -0.5241     1.7458     1.7458     0.0000
 16 C      5.9727     6.0000     0.0273     3.5706     3.5706     0.0000
 17 C      5.9231     6.0000     0.0769     3.6427     3.6427     0.0000
 18 C      6.2940     6.0000    -0.2940     3.6931     3.6931    -0.0000
 19 C      6.0324     6.0000    -0.0324     3.6654     3.6654    -0.0000
 20 O      8.5215     8.0000    -0.5215     1.7615     1.7615    -0.0000
 21 H      0.8059     1.0000     0.1941     0.9349     0.9349     0.0000
 22 O      8.6016     8.0000    -0.6016     1.7443     1.7443     0.0000
 23 H      0.8472     1.0000     0.1528     0.9367     0.9367    -0.0000
 24 H      0.8373     1.0000     0.1627     0.9394     0.9394    -0.0000
 25 H      0.8569     1.0000     0.1431     0.9362     0.9362    -0.0000
 26 H      0.8487     1.0000     0.1513     0.9262     0.9262    -0.0000
 27 H      0.8526     1.0000     0.1474     0.9282     0.9282    -0.0000
 28 H      0.6345     1.0000     0.3655     0.8323     0.8323     0.0000

  Mayer bond orders larger than 0.100000
B(  0-C ,  1-C ) :   0.9478 B(  0-C ,  4-O ) :   0.8806 B(  0-C ,  5-H ) :   0.9138 
B(  0-C , 15-O ) :   0.8586 B(  1-C ,  2-C ) :   0.9533 B(  1-C ,  6-H ) :   0.9399 
B(  1-C ,  7-H ) :   0.9359 B(  2-C ,  3-C ) :   0.9557 B(  2-C ,  8-H ) :   0.9452 
B(  2-C ,  9-H ) :   0.9446 B(  3-C ,  4-O ) :   0.8332 B(  3-C , 10-H ) :   0.9357 
B(  3-C , 11-H ) :   0.9407 B( 12-C , 13-H ) :   0.9112 B( 12-C , 14-H ) :   0.9378 
B( 12-C , 15-O ) :   0.8489 B( 12-C , 16-C ) :   0.8887 B( 16-C , 17-C ) :   0.8965 
B( 16-C , 20-O ) :   0.8454 B( 16-C , 21-H ) :   0.9070 B( 17-C , 18-C ) :   0.9116 
B( 17-C , 22-O ) :   0.8944 B( 17-C , 23-H ) :   0.9328 B( 18-C , 19-C ) :   0.9410 
B( 18-C , 24-H ) :   0.9374 B( 18-C , 25-H ) :   0.9344 B( 19-C , 20-O ) :   0.8486 
B( 19-C , 26-H ) :   0.9337 B( 19-C , 27-H ) :   0.9374 B( 22-O , 28-H ) :   0.7939 


-------
TIMINGS
-------

Total SCF time: 0 days 0 hours 1 min 40 sec 

Total time                  ....     100.101 sec
Sum of individual times     ....      99.572 sec  ( 99.5%)

Fock matrix formation       ....      91.047 sec  ( 91.0%)
  XC integration            ....      13.997 sec  ( 15.4% of F)
    Basis function eval.    ....       2.395 sec  ( 17.1% of XC)
    Density eval.           ....       1.263 sec  (  9.0% of XC)
    XC-Functional eval.     ....       0.599 sec  (  4.3% of XC)
    XC-Potential eval.      ....       1.202 sec  (  8.6% of XC)
Diagonalization             ....       0.009 sec  (  0.0%)
Density matrix formation    ....       0.005 sec  (  0.0%)
Population analysis         ....       0.183 sec  (  0.2%)
Initial guess               ....       0.007 sec  (  0.0%)
Orbital Transformation      ....       0.000 sec  (  0.0%)
Orbital Orthonormalization  ....       0.005 sec  (  0.0%)
DIIS solution               ....       0.002 sec  (  0.0%)
SOSCF solution              ....       0.107 sec  (  0.1%)
Grid generation             ....       8.211 sec  (  8.2%)

-------------------------   --------------------
FINAL SINGLE POINT ENERGY      -652.865586982504
-------------------------   --------------------

                                *** OPTIMIZATION RUN DONE ***

                            ***************************************
                            *     ORCA property calculations      *
                            ***************************************

                                    ---------------------
                                    Active property flags
                                    ---------------------
   (+) Dipole Moment


------------------------------------------------------------------------------
                       ORCA ELECTRIC PROPERTIES CALCULATION
------------------------------------------------------------------------------

Dipole Moment Calculation                       ... on
Quadrupole Moment Calculation                   ... off
Polarizability Calculation                      ... off
GBWName                                         ... project_8052/ensemble_315_315.gbw
Electron density file                           ... project_8052/ensemble_315_315.scfp
The origin for moment calculation is the CENTER OF MASS  = (-42.170834, 47.010308 88.239317)

-------------
DIPOLE MOMENT
-------------
                                X             Y             Z
Electronic contribution:      0.70421      -3.51209      -1.15256
Nuclear contribution   :     -1.04850       4.16117       1.20507
                        -----------------------------------------
Total Dipole Moment    :     -0.34429       0.64907       0.05251
                        -----------------------------------------
Magnitude (a.u.)       :      0.73661
Magnitude (Debye)      :      1.87231



--------------------
Rotational spectrum 
--------------------
 
Rotational constants in cm-1:     0.061806     0.013367     0.012368 
Rotational constants in MHz :  1852.884757   400.737054   370.784294 

 Dipole components along the rotational axes: 
x,y,z [a.u.] :     0.319781    -0.383824    -0.541303 
x,y,z [Debye]:     0.812820    -0.975603    -1.375883 

 

Timings for individual modules:

Sum of individual times         ...     1316.886 sec (=  21.948 min)
GTO integral calculation        ...        3.119 sec (=   0.052 min)   0.2 %
SCF iterations                  ...     1007.045 sec (=  16.784 min)  76.5 %
SCF Gradient evaluation         ...      304.864 sec (=   5.081 min)  23.2 %
Geometry relaxation             ...        1.858 sec (=   0.031 min)   0.1 %
                             ****ORCA TERMINATED NORMALLY****
TOTAL RUN TIME: 0 days 0 hours 22 minutes 0 seconds 499 msec
