
                                 *****************
                                 * O   R   C   A *
                                 *****************

           --- An Ab Initio, DFT and Semiempirical electronic structure package ---

                  #######################################################
                  #                        -***-                        #
                  #          Department of theory and spectroscopy      #
                  #               Directorship: Frank Neese             #
                  #        Max Planck Institute fuer Kohlenforschung    #
                  #                Kaiser Wilhelm Platz 1               #
                  #                 D-45470 Muelheim/Ruhr               #
                  #                      Germany                        #
                  #                                                     #
                  #                  All rights reserved                #
                  #                        -***-                        #
                  #######################################################


                         Program Version 4.2.0 -  RELEASE  -


 With contributions from (in alphabetic order):
   Daniel Aravena         : Magnetic Suceptibility
   Michael Atanasov       : Ab Initio Ligand Field Theory (pilot matlab implementation)
   Alexander A. Auer      : GIAO ZORA, VPT2
   Ute Becker             : Parallelization
   Giovanni Bistoni       : ED, misc. LED, open-shell LED, HFLED
   Martin Brehm           : Molecular dynamics
   Dmytro Bykov           : SCF Hessian
   Vijay G. Chilkuri      : MRCI spin determinant printing, contributions to CSF-ICE
   Dipayan Datta          : RHF DLPNO-CCSD density
   Achintya Kumar Dutta   : EOM-CC, STEOM-CC
   Dmitry Ganyushin       : Spin-Orbit,Spin-Spin,Magnetic field MRCI
   Miquel Garcia          : C-PCM Hessian, Gaussian charge scheme
   Yang Guo               : DLPNO-NEVPT2, CIM, IAO-localization
   Andreas Hansen         : Spin unrestricted coupled pair/coupled cluster methods
   Benjamin Helmich-Paris : CASSCF linear response (MC-RPA)
   Lee Huntington         : MR-EOM, pCC
   Robert Izsak           : Overlap fitted RIJCOSX, COSX-SCS-MP3, EOM
   Christian Kollmar      : KDIIS, OOCD, Brueckner-CCSD(T), CCSD density
   Simone Kossmann        : Meta GGA functionals, TD-DFT gradient, OOMP2, MP2 Hessian
   Martin Krupicka        : AUTO-CI
   Lucas Lang             : DCDCAS
   Dagmar Lenk            : GEPOL surface, SMD
   Dimitrios Liakos       : Extrapolation schemes; Compound Job, initial MDCI parallelization
   Dimitrios Manganas     : Further ROCIS development; embedding schemes
   Dimitrios Pantazis     : SARC Basis sets
   Taras Petrenko         : DFT Hessian,TD-DFT gradient, ASA, ECA, R-Raman, ABS, FL, XAS/XES, NRVS
   Peter Pinski           : DLPNO-MP2, DLPNO-MP2 Gradient
   Christoph Reimann      : Effective Core Potentials
   Marius Retegan         : Local ZFS, SOC
   Christoph Riplinger    : Optimizer, TS searches, QM/MM, DLPNO-CCSD(T), (RO)-DLPNO pert. Triples
   Tobias Risthaus        : Range-separated hybrids, TD-DFT gradient, RPA, STAB
   Michael Roemelt        : Original ROCIS implementation
   Masaaki Saitow         : Open-shell DLPNO-CCSD energy and density
   Barbara Sandhoefer     : DKH picture change effects
   Avijit Sen             : IP-ROCIS
   Kantharuban Sivalingam : CASSCF convergence, NEVPT2, FIC-MRCI
   Bernardo de Souza      : ESD, SOC TD-DFT
   Georgi Stoychev        : AutoAux, RI-MP2 NMR
   Willem Van den Heuvel  : Paramagnetic NMR
   Boris Wezisla          : Elementary symmetry handling
   Frank Wennmohs         : Technical directorship


 We gratefully acknowledge several colleagues who have allowed us to
 interface, adapt or use parts of their codes:
   Stefan Grimme, W. Hujo, H. Kruse,             : VdW corrections, initial TS optimization,
                  C. Bannwarth                     DFT functionals, gCP, sTDA/sTD-DF
   Ed Valeev, F. Pavosevic, A. Kumar             : LibInt (2-el integral package), F12 methods
   Garnet Chan, S. Sharma, J. Yang, R. Olivares  : DMRG
   Ulf Ekstrom                                   : XCFun DFT Library
   Mihaly Kallay                                 : mrcc  (arbitrary order and MRCC methods)
   Andreas Klamt, Michael Diedenhofen            : otool_cosmo (COSMO solvation model)
   Jiri Pittner, Ondrej Demel                    : Mk-CCSD
   Frank Weinhold                                : gennbo (NPA and NBO analysis)
   Christopher J. Cramer and Donald G. Truhlar   : smd solvation model
   Lars Goerigk                                  : TD-DFT with DH, B97 family of functionals
   V. Asgeirsson, H. Jonsson                     : NEB implementation
   FAccTs GmbH                                   : IRC, NEB, NEB-TS, Multilevel, MM, QM/MM, CI optimization
   S Lehtola, MJT Oliveira, MAL Marques          : LibXC Library


 Your calculation uses the libint2 library for the computation of 2-el integrals
 For citations please refer to: http://libint.valeyev.net

 Your ORCA version has been built with support for libXC version: 4.2.3
 For citations please refer to: https://tddft.org/programs/libxc/

 This ORCA versions uses:
   CBLAS   interface :  Fast vector & matrix operations
   LAPACKE interface :  Fast linear algebra routines
   SCALAPACK package :  Parallel linear algebra routines


----- Orbital basis set information -----
Your calculation utilizes the basis: 6-31G
   H-He, Li-Ne : W. J. Hehre, R. Ditchfield and J.A. Pople, J. Chem. Phys. 56, 2257 (1972).
                 Note: He and Ne are unpublished basis sets taken from the Gaussian program.
                 Note: Li and B from J. D. Dill and J. A. Pople, J. Chem. Phys. 62, 2921 (1975).
   Na - Ar     : M. M. Francl, W. J. Pietro, W. J. Hehre, J. S. Binkley, M. S. Gordon, 
                 D. J. DeFrees and J. A. Pople, J. Chem. Phys. 77, 3654 (1982).
   K - Zn      : V. A. Rassolov, J. A. Pople, M. A. Ratner, and T. L. Windus, J. Chem. Phys. 109, 1223 (1998).

================================================================================
                                        WARNINGS
                       Please study these warnings very carefully!
================================================================================


WARNING: Geometry Optimization
  ===> : Switching off AutoStart
         For restart on a previous wavefunction, please use MOREAD

INFO   : the flag for use of LIBINT has been found!

================================================================================
                                       INPUT FILE
================================================================================
NAME = project_8050/ensemble_330_300.inp
|  1> # Test redundant internal optimization
|  2> #
|  3> ! RKS B3LYP  Opt TightSCF SmallPrint
|  4> 
|  5> %basis
|  6>         Basis "6-31G"
|  7> end
|  8> 
|  9> %geom
| 10> Constraints
| 11> { D 4  0  15  12  330.0   C } # D for Dihedral angle
| 12> { D 0  15  12  16  300.0   C } # D for Dihedral angle
| 13> { D 0  4  3  2   C } # D for Dihedral angle
| 14> { D 4  3  2  1   C } # D for Dihedral angle
| 15> { D 3  2  1  0   C } # D for Dihedral angle
| 16> { D 2  1  0  4   C } # D for Dihedral angle
| 17> { D 1  0  4  3   C } # D for Dihedral angle
| 18> { D 16  20  19  18   C } # D for Dihedral angle
| 19> { D 20  19  18  17   C } # D for Dihedral angle
| 20> { D 19  18  17  16   C } # D for Dihedral angle
| 21> { D 18  17  16  20   C } # D for Dihedral angle
| 22> { D 17  16  20  19   C } # D for Dihedral angle
| 23> { D 15  12  16  20   C } # D for Dihedral angle
| 24> end
| 25> end
| 26> 
| 27> 
| 28> #%pal 
| 29> #nprocs 8
| 30> #end
| 31> 
| 32> * xyz 0 1
| 33> C  -21.048   26.222   46.251
| 34> C  -20.361   27.558   45.944
| 35> C  -20.329   28.222   47.341
| 36> C  -20.110   27.022   48.296
| 37> O  -20.473   25.807   47.535
| 38> H  -20.833   25.428   45.533
| 39> H  -19.344   27.382   45.576
| 40> H  -20.898   28.157   45.201
| 41> H  -19.543   28.978   47.434
| 42> H  -21.289   28.710   47.548
| 43> H  -20.733   27.082   49.195
| 44> H  -19.064   26.913   48.597
| 45> C  -23.271   25.476   47.424
| 46> H  -22.856   25.689   48.417
| 47> H  -24.351   25.667   47.455
| 48> O  -22.586   26.394   46.375
| 49> C  -23.067   23.965   47.124
| 50> C  -21.589   23.571   47.228
| 51> C  -21.405   23.449   48.760
| 52> C  -22.769   22.889   49.235
| 53> O  -23.732   23.146   48.142
| 54> H  -23.533   23.725   46.166
| 55> O  -21.354   22.200   46.537
| 56> H  -20.914   24.305   46.776
| 57> H  -20.568   22.800   49.036
| 58> H  -21.220   24.438   49.196
| 59> H  -23.126   23.375   50.149
| 60> H  -22.744   21.808   49.395
| 61> H  -22.019   21.447   46.975
| 62> *
| 63> 
| 64>                          ****END OF INPUT****
================================================================================

                       *****************************
                       * Geometry Optimization Run *
                       *****************************

Geometry optimization settings:
Update method            Update   .... BFGS
Choice of coordinates    CoordSys .... Z-matrix Internals
Initial Hessian          InHess   .... Almoef's Model

Convergence Tolerances:
Energy Change            TolE     ....  5.0000e-06 Eh
Max. Gradient            TolMAXG  ....  3.0000e-04 Eh/bohr
RMS Gradient             TolRMSG  ....  1.0000e-04 Eh/bohr
Max. Displacement        TolMAXD  ....  4.0000e-03 bohr
RMS Displacement         TolRMSD  ....  2.0000e-03 bohr
Strict Convergence                ....  False
------------------------------------------------------------------------------
                        ORCA OPTIMIZATION COORDINATE SETUP
------------------------------------------------------------------------------

The optimization will be done in new redundant internal coordinates
Making redundant internal coordinates   ...  (new redundants) done
Evaluating the initial hessian          ...  (Almloef) done
Evaluating the coordinates              ...  done
Calculating the B-matrix                .... done
Calculating the G-matrix                .... done
Diagonalizing the G-matrix              .... done
Imposing constraints:
 Iter   0:  RMS(Cart)=    0.0002015318 RMS(Int)=    0.0000448820
 Iter   1:  RMS(Cart)=    0.0000967018 RMS(Int)=    0.0000243596
 Iter   2:  RMS(Cart)=    0.0000475613 RMS(Int)=    0.0000144935
 Iter   3:  RMS(Cart)=    0.0000242672 RMS(Int)=    0.0000094853
 Iter   4:  RMS(Cart)=    0.0000130371 RMS(Int)=    0.0000067758
 Iter   5:  RMS(Cart)=    0.0000074679 RMS(Int)=    0.0000052368
 Iter   6:  RMS(Cart)=    0.0000045765 RMS(Int)=    0.0000043396
 Iter   7:  RMS(Cart)=    0.0000029790 RMS(Int)=    0.0000038069
 Iter   8:  RMS(Cart)=    0.0000020364 RMS(Int)=    0.0000034799
 Iter   9:  RMS(Cart)=    0.0000014496 RMS(Int)=    0.0000032663
 Iter  10:  RMS(Cart)=    0.0000010715 RMS(Int)=    0.0000031140
 Iter  11:  RMS(Cart)=    0.0000008240 RMS(Int)=    0.0000029950
 Iter  12:  RMS(Cart)=    0.0000006612 RMS(Int)=    0.0000028945
 Iter  13:  RMS(Cart)=    0.0000005540 RMS(Int)=    0.0000028045
 Iter  14:  RMS(Cart)=    0.0000004828 RMS(Int)=    0.0000027212
 Iter  15:  RMS(Cart)=    0.0000004346 RMS(Int)=    0.0000026424
 Iter  16:  RMS(Cart)=    0.0000004008 RMS(Int)=    0.0000025671
 Iter  17:  RMS(Cart)=    0.0000003759 RMS(Int)=    0.0000024946
 Iter  18:  RMS(Cart)=    0.0000003565 RMS(Int)=    0.0000024247
 Iter  19:  RMS(Cart)=    0.0000003407 RMS(Int)=    0.0000023571
 Iter  20:  RMS(Cart)=    0.0000003273 RMS(Int)=    0.0000022916
 Iter  21:  RMS(Cart)=    0.0000003154 RMS(Int)=    0.0000022282
 Iter  22:  RMS(Cart)=    0.0000003047 RMS(Int)=    0.0000021667
 Iter  23:  RMS(Cart)=    0.0000002948 RMS(Int)=    0.0000021072
 Iter  24:  RMS(Cart)=    0.0000002855 RMS(Int)=    0.0000020495
 Iter  25:  RMS(Cart)=    0.0000002768 RMS(Int)=    0.0000019936
 Iter  26:  RMS(Cart)=    0.0000002685 RMS(Int)=    0.0000019394
 Iter  27:  RMS(Cart)=    0.0000002606 RMS(Int)=    0.0000018869
 Iter  28:  RMS(Cart)=    0.0000002529 RMS(Int)=    0.0000018359
 Iter  29:  RMS(Cart)=    0.0000002456 RMS(Int)=    0.0000017865
 Iter  30:  RMS(Cart)=    0.0000002386 RMS(Int)=    0.0000017386
 Iter  31:  RMS(Cart)=    0.0000002318 RMS(Int)=    0.0000016922
 Iter  32:  RMS(Cart)=    0.0000002252 RMS(Int)=    0.0000016471
 Iter  33:  RMS(Cart)=    0.0000002188 RMS(Int)=    0.0000016034
 Iter  34:  RMS(Cart)=    0.0000002127 RMS(Int)=    0.0000015611
 Iter  35:  RMS(Cart)=    0.0000002067 RMS(Int)=    0.0000015199
 Iter  36:  RMS(Cart)=    0.0000002010 RMS(Int)=    0.0000014801
 Iter  37:  RMS(Cart)=    0.0000001954 RMS(Int)=    0.0000014414
 Iter  38:  RMS(Cart)=    0.0000001900 RMS(Int)=    0.0000014038
 Iter  39:  RMS(Cart)=    0.0000001847 RMS(Int)=    0.0000013674
 Iter  40:  RMS(Cart)=    0.0000001797 RMS(Int)=    0.0000013321
 Iter  41:  RMS(Cart)=    0.0000001748 RMS(Int)=    0.0000012978
 Iter  42:  RMS(Cart)=    0.0000001700 RMS(Int)=    0.0000012645
 Iter  43:  RMS(Cart)=    0.0000001654 RMS(Int)=    0.0000012322
 Iter  44:  RMS(Cart)=    0.0000001609 RMS(Int)=    0.0000012008
 Iter  45:  RMS(Cart)=    0.0000001566 RMS(Int)=    0.0000011703
 Iter  46:  RMS(Cart)=    0.0000001523 RMS(Int)=    0.0000011408
 Iter  47:  RMS(Cart)=    0.0000001483 RMS(Int)=    0.0000011121
 Iter  48:  RMS(Cart)=    0.0000001443 RMS(Int)=    0.0000010842
 Iter  49:  RMS(Cart)=    0.0000001405 RMS(Int)=    0.0000010572
 Iter  50:  RMS(Cart)=    0.0000001367 RMS(Int)=    0.0000010309
 Iter  51:  RMS(Cart)=    0.0000001331 RMS(Int)=    0.0000010054
 Iter  52:  RMS(Cart)=    0.0000001296 RMS(Int)=    0.0000009806
 Iter  53:  RMS(Cart)=    0.0000001262 RMS(Int)=    0.0000009565
 Iter  54:  RMS(Cart)=    0.0000001229 RMS(Int)=    0.0000009331
 Iter  55:  RMS(Cart)=    0.0000001197 RMS(Int)=    0.0000009104
 Iter  56:  RMS(Cart)=    0.0000001166 RMS(Int)=    0.0000008884
 Iter  57:  RMS(Cart)=    0.0000001136 RMS(Int)=    0.0000008669
 Iter  58:  RMS(Cart)=    0.0000001106 RMS(Int)=    0.0000008461
 Iter  59:  RMS(Cart)=    0.0000001078 RMS(Int)=    0.0000008259
 Iter  60:  RMS(Cart)=    0.0000001050 RMS(Int)=    0.0000008062
 Iter  61:  RMS(Cart)=    0.0000001024 RMS(Int)=    0.0000007871
 Iter  62:  RMS(Cart)=    0.0000000997 RMS(Int)=    0.0000007685
 Iter  63:  RMS(Cart)=    0.0000000972 RMS(Int)=    0.0000007504
 Iter  64:  RMS(Cart)=    0.0000000948 RMS(Int)=    0.0000007329
 Iter  65:  RMS(Cart)=    0.0000000924 RMS(Int)=    0.0000007158
 Iter  66:  RMS(Cart)=    0.0000000900 RMS(Int)=    0.0000006992
 Iter  67:  RMS(Cart)=    0.0000000878 RMS(Int)=    0.0000006831
 Iter  68:  RMS(Cart)=    0.0000000856 RMS(Int)=    0.0000006674
 Iter  69:  RMS(Cart)=    0.0000000835 RMS(Int)=    0.0000006522
 Iter  70:  RMS(Cart)=    0.0000000814 RMS(Int)=    0.0000006374
 Iter  71:  RMS(Cart)=    0.0000000794 RMS(Int)=    0.0000006229
 Iter  72:  RMS(Cart)=    0.0000000774 RMS(Int)=    0.0000006089
 Iter  73:  RMS(Cart)=    0.0000000755 RMS(Int)=    0.0000005953
 Iter  74:  RMS(Cart)=    0.0000000737 RMS(Int)=    0.0000005820
 Iter  75:  RMS(Cart)=    0.0000000719 RMS(Int)=    0.0000005691
 Iter  76:  RMS(Cart)=    0.0000000702 RMS(Int)=    0.0000005565
 Iter  77:  RMS(Cart)=    0.0000000685 RMS(Int)=    0.0000005443
 Iter  78:  RMS(Cart)=    0.0000000668 RMS(Int)=    0.0000005324
 Iter  79:  RMS(Cart)=    0.0000000652 RMS(Int)=    0.0000005208
 Iter  80:  RMS(Cart)=    0.0000000636 RMS(Int)=    0.0000005096
 Iter  81:  RMS(Cart)=    0.0000000621 RMS(Int)=    0.0000004986
 Iter  82:  RMS(Cart)=    0.0000000607 RMS(Int)=    0.0000004880
 Iter  83:  RMS(Cart)=    0.0000000592 RMS(Int)=    0.0000004776
 Iter  84:  RMS(Cart)=    0.0000000578 RMS(Int)=    0.0000004675
 Iter  85:  RMS(Cart)=    0.0000000565 RMS(Int)=    0.0000004576
 Iter  86:  RMS(Cart)=    0.0000000551 RMS(Int)=    0.0000004480
 Iter  87:  RMS(Cart)=    0.0000000538 RMS(Int)=    0.0000004387
 Iter  88:  RMS(Cart)=    0.0000000526 RMS(Int)=    0.0000004296
 Iter  89:  RMS(Cart)=    0.0000000514 RMS(Int)=    0.0000004207
 Iter  90:  RMS(Cart)=    0.0000000502 RMS(Int)=    0.0000004121
 Iter  91:  RMS(Cart)=    0.0000000490 RMS(Int)=    0.0000004037
 Iter  92:  RMS(Cart)=    0.0000000479 RMS(Int)=    0.0000003955
 Iter  93:  RMS(Cart)=    0.0000000468 RMS(Int)=    0.0000003876
 Iter  94:  RMS(Cart)=    0.0000000457 RMS(Int)=    0.0000003798
 Iter  95:  RMS(Cart)=    0.0000000447 RMS(Int)=    0.0000003722
 Iter  96:  RMS(Cart)=    0.0000000437 RMS(Int)=    0.0000003649
 Iter  97:  RMS(Cart)=    0.0000000427 RMS(Int)=    0.0000003577
 Iter  98:  RMS(Cart)=    0.0000000418 RMS(Int)=    0.0000003507
 Iter  99:  RMS(Cart)=    0.0000000408 RMS(Int)=    0.0000003438
 RMS(Cart) too big - taking linear step, building new B-matrix and trying again
Imposing constraints:
 Iter   0:  RMS(Cart)=    0.0000966995 RMS(Int)=    0.0000243596
 Iter   1:  RMS(Cart)=    0.0000475602 RMS(Int)=    0.0000144934
 Iter   2:  RMS(Cart)=    0.0000242666 RMS(Int)=    0.0000094852
 Iter   3:  RMS(Cart)=    0.0000130367 RMS(Int)=    0.0000067758
 Iter   4:  RMS(Cart)=    0.0000074676 RMS(Int)=    0.0000052367
 Iter   5:  RMS(Cart)=    0.0000045764 RMS(Int)=    0.0000043395
 Iter   6:  RMS(Cart)=    0.0000029789 RMS(Int)=    0.0000038068
 Iter   7:  RMS(Cart)=    0.0000020364 RMS(Int)=    0.0000034798
 Iter   8:  RMS(Cart)=    0.0000014496 RMS(Int)=    0.0000032662
 Iter   9:  RMS(Cart)=    0.0000010715 RMS(Int)=    0.0000031139
 Iter  10:  RMS(Cart)=    0.0000008240 RMS(Int)=    0.0000029950
 Iter  11:  RMS(Cart)=    0.0000006612 RMS(Int)=    0.0000028944
 Iter  12:  RMS(Cart)=    0.0000005540 RMS(Int)=    0.0000028044
 Iter  13:  RMS(Cart)=    0.0000004828 RMS(Int)=    0.0000027211
 Iter  14:  RMS(Cart)=    0.0000004346 RMS(Int)=    0.0000026423
 Iter  15:  RMS(Cart)=    0.0000004008 RMS(Int)=    0.0000025670
 Iter  16:  RMS(Cart)=    0.0000003759 RMS(Int)=    0.0000024946
 Iter  17:  RMS(Cart)=    0.0000003565 RMS(Int)=    0.0000024246
 Iter  18:  RMS(Cart)=    0.0000003407 RMS(Int)=    0.0000023570
 Iter  19:  RMS(Cart)=    0.0000003273 RMS(Int)=    0.0000022915
 Iter  20:  RMS(Cart)=    0.0000003154 RMS(Int)=    0.0000022281
 Iter  21:  RMS(Cart)=    0.0000003047 RMS(Int)=    0.0000021667
 Iter  22:  RMS(Cart)=    0.0000002948 RMS(Int)=    0.0000021072
 Iter  23:  RMS(Cart)=    0.0000002855 RMS(Int)=    0.0000020495
 Iter  24:  RMS(Cart)=    0.0000002768 RMS(Int)=    0.0000019936
 Iter  25:  RMS(Cart)=    0.0000002685 RMS(Int)=    0.0000019394
 Iter  26:  RMS(Cart)=    0.0000002606 RMS(Int)=    0.0000018868
 Iter  27:  RMS(Cart)=    0.0000002529 RMS(Int)=    0.0000018359
 Iter  28:  RMS(Cart)=    0.0000002456 RMS(Int)=    0.0000017865
 Iter  29:  RMS(Cart)=    0.0000002386 RMS(Int)=    0.0000017386
 Iter  30:  RMS(Cart)=    0.0000002318 RMS(Int)=    0.0000016922
 Iter  31:  RMS(Cart)=    0.0000002252 RMS(Int)=    0.0000016471
 Iter  32:  RMS(Cart)=    0.0000002188 RMS(Int)=    0.0000016034
 Iter  33:  RMS(Cart)=    0.0000002127 RMS(Int)=    0.0000015611
 Iter  34:  RMS(Cart)=    0.0000002067 RMS(Int)=    0.0000015199
 Iter  35:  RMS(Cart)=    0.0000002010 RMS(Int)=    0.0000014801
 Iter  36:  RMS(Cart)=    0.0000001954 RMS(Int)=    0.0000014414
 Iter  37:  RMS(Cart)=    0.0000001900 RMS(Int)=    0.0000014038
 Iter  38:  RMS(Cart)=    0.0000001847 RMS(Int)=    0.0000013674
 Iter  39:  RMS(Cart)=    0.0000001797 RMS(Int)=    0.0000013321
 Iter  40:  RMS(Cart)=    0.0000001748 RMS(Int)=    0.0000012978
 Iter  41:  RMS(Cart)=    0.0000001700 RMS(Int)=    0.0000012645
 Iter  42:  RMS(Cart)=    0.0000001654 RMS(Int)=    0.0000012322
 Iter  43:  RMS(Cart)=    0.0000001609 RMS(Int)=    0.0000012008
 Iter  44:  RMS(Cart)=    0.0000001566 RMS(Int)=    0.0000011704
 Iter  45:  RMS(Cart)=    0.0000001524 RMS(Int)=    0.0000011408
 Iter  46:  RMS(Cart)=    0.0000001483 RMS(Int)=    0.0000011121
 Iter  47:  RMS(Cart)=    0.0000001443 RMS(Int)=    0.0000010843
 Iter  48:  RMS(Cart)=    0.0000001405 RMS(Int)=    0.0000010572
 Iter  49:  RMS(Cart)=    0.0000001367 RMS(Int)=    0.0000010309
 Iter  50:  RMS(Cart)=    0.0000001331 RMS(Int)=    0.0000010054
 Iter  51:  RMS(Cart)=    0.0000001296 RMS(Int)=    0.0000009806
CONVERGED
Small eigenvalue found = 5.222e-03
Small eigenvalue found = 1.142e-02
Small eigenvalue found = 1.354e-02
The first mode is                       ....   91
The number of degrees of freedom        ....   81
Storing new coordinates                 .... done

    -----------------------------------------------------------------
                    Redundant Internal Coordinates


    -----------------------------------------------------------------
         Definition                    Initial Value    Approx d2E/dq
    -----------------------------------------------------------------
      1. B(C   1,C   0)                  1.5333         0.369027   
      2. B(C   2,C   1)                  1.5471         0.350825   
      3. B(C   3,C   2)                  1.5492         0.348147   
      4. B(O   4,C   0)                  1.4668         0.422031   
      5. B(O   4,C   3)                  1.4789         0.403699   
      6. B(H   5,C   0)                  1.0919         0.357632   
      7. B(H   6,C   1)                  1.0958         0.352561   
      8. B(H   7,C   1)                  1.0951         0.353431   
      9. B(H   8,C   2)                  1.0945         0.354166   
     10. B(H   9,C   2)                  1.0966         0.351438   
     11. B(H  10,C   3)                  1.0954         0.353010   
     12. B(H  11,C   3)                  1.0939         0.354989   
     13. B(H  13,C  12)                  1.0971         0.350820   
     14. B(H  14,C  12)                  1.0972         0.350704   
     15. B(O  15,C   0)                  1.5525         0.307993   
     16. B(O  15,C  12)                  1.5532         0.307285   
     17. B(C  16,C  12)                  1.5539         0.342120   
     18. B(C  17,C  16)                  1.5331         0.369282   
     19. B(C  18,C  17)                  1.5478         0.349895   
     20. B(C  19,C  18)                  1.5491         0.348257   
     21. B(O  20,C  16)                  1.4661         0.423193   
     22. B(O  20,C  19)                  1.4792         0.403222   
     23. B(H  21,C  16)                  1.0920         0.357430   
     24. B(O  22,C  17)                  1.5532         0.307286   
     25. B(H  23,C  17)                  1.0948         0.353748   
     26. B(H  24,C  18)                  1.0945         0.354187   
     27. B(H  25,C  18)                  1.0966         0.351527   
     28. B(H  26,C  19)                  1.0950         0.353537   
     29. B(H  27,C  19)                  1.0931         0.356071   
     30. B(H  28,O  22)                  1.0959         0.315564   
     31. A(O   4,C   0,H   5)          107.0218         0.328541   
     32. A(C   1,C   0,O  15)          111.3017         0.348740   
     33. A(C   1,C   0,O   4)          104.2484         0.367935   
     34. A(O   4,C   0,O  15)          110.4735         0.354548   
     35. A(C   1,C   0,H   5)          114.4374         0.323302   
     36. A(H   5,C   0,O  15)          109.1579         0.312058   
     37. A(C   0,C   1,C   2)          101.6797         0.358729   
     38. A(C   2,C   1,H   7)          112.8318         0.320016   
     39. A(C   2,C   1,H   6)          110.6709         0.319888   
     40. A(C   0,C   1,H   6)          110.0676         0.322546   
     41. A(H   6,C   1,H   7)          108.3681         0.289027   
     42. A(C   0,C   1,H   7)          113.1243         0.322677   
     43. A(C   1,C   2,H   8)          112.8319         0.320125   
     44. A(C   1,C   2,C   3)          103.1266         0.355196   
     45. A(C   1,C   2,H   9)          110.0801         0.319721   
     46. A(C   3,C   2,H   9)          110.6152         0.319321   
     47. A(C   3,C   2,H   8)          112.4039         0.319725   
     48. A(H   8,C   2,H   9)          107.7728         0.288977   
     49. A(O   4,C   3,H  10)          109.1298         0.325449   
     50. A(C   2,C   3,H  10)          112.5253         0.319554   
     51. A(C   2,C   3,O   4)          106.5276         0.361529   
     52. A(O   4,C   3,H  11)          107.1237         0.325748   
     53. A(H  10,C   3,H  11)          108.8728         0.289284   
     54. A(C   2,C   3,H  11)          112.4566         0.319846   
     55. A(C   0,O   4,C   3)          108.3148         0.371320   
     56. A(H  14,C  12,C  16)          107.6880         0.318304   
     57. A(H  13,C  12,H  14)          108.2383         0.288453   
     58. A(H  13,C  12,O  15)          109.2505         0.310973   
     59. A(H  14,C  12,O  15)          110.5080         0.310956   
     60. A(O  15,C  12,C  16)          112.7322         0.344195   
     61. A(H  13,C  12,C  16)          108.2989         0.318321   
     62. A(C   0,O  15,C  12)          115.1736         0.336146   
     63. A(C  12,C  16,C  17)          111.3053         0.357241   
     64. A(C  12,C  16,O  20)          110.4631         0.363367   
     65. A(C  17,C  16,O  20)          104.2769         0.368153   
     66. A(C  12,C  16,H  21)          109.0900         0.319292   
     67. A(C  17,C  16,H  21)          114.4818         0.323309   
     68. A(O  20,C  16,H  21)          107.0275         0.328660   
     69. A(C  16,C  17,C  18)          101.6540         0.358609   
     70. A(C  16,C  17,O  22)          110.0308         0.348646   
     71. A(C  18,C  17,O  22)          110.6579         0.345496   
     72. A(C  16,C  17,H  23)          113.2071         0.322761   
     73. A(C  18,C  17,H  23)          112.8407         0.319925   
     74. A(O  22,C  17,H  23)          108.3504         0.311391   
     75. A(C  17,C  18,C  19)          103.1388         0.355055   
     76. A(C  17,C  18,H  24)          112.7827         0.319989   
     77. A(C  19,C  18,H  24)          112.4374         0.319744   
     78. A(C  17,C  18,H  25)          110.0299         0.319596   
     79. A(C  19,C  18,H  25)          110.6510         0.319351   
     80. A(H  24,C  18,H  25)          107.7893         0.288991   
     81. A(C  18,C  19,O  20)          106.4905         0.361475   
     82. A(C  18,C  19,H  26)          112.4927         0.319648   
     83. A(O  20,C  19,H  26)          109.1111         0.325465   
     84. A(C  18,C  19,H  27)          112.4734         0.320021   
     85. A(O  20,C  19,H  27)          107.1499         0.325848   
     86. A(H  26,C  19,H  27)          108.9177         0.289490   
     87. A(C  16,O  20,C  19)          108.3515         0.371420   
     88. A(C  17,O  22,H  28)          109.6869         0.303190   
     89. D(H   7,C   1,C   0,H   5)     82.1516         0.010890   
     90. D(C   2,C   1,C   0,O  15)     79.0867         0.010890   
     91. D(H   7,C   1,C   0,O  15)    -42.1869         0.010890   
     92. D(H   6,C   1,C   0,O   4)     77.3260         0.010890   
     93. D(H   6,C   1,C   0,O  15)   -163.5727         0.010890   
     94. D(H   6,C   1,C   0,H   5)    -39.2342         0.010890   
     95. D(H   7,C   1,C   0,O   4)   -161.2881         0.010890   
     96. D(C   2,C   1,C   0,O   4)    -40.0145         0.010890 C 
     97. D(C   2,C   1,C   0,H   5)   -156.5748         0.010890   
     98. D(H   9,C   2,C   1,H   6)    160.0776         0.009912   
     99. D(H   8,C   2,C   1,C   0)    156.5479         0.009912   
    100. D(H   8,C   2,C   1,H   6)     39.6446         0.009912   
    101. D(C   3,C   2,C   1,C   0)     35.0270         0.009912 C 
    102. D(H   8,C   2,C   1,H   7)    -81.9752         0.009912   
    103. D(H   9,C   2,C   1,C   0)    -83.0191         0.009912   
    104. D(C   3,C   2,C   1,H   6)    -81.8763         0.009912   
    105. D(H   9,C   2,C   1,H   7)     38.4578         0.009912   
    106. D(C   3,C   2,C   1,H   7)    156.5039         0.009912   
    107. D(H  11,C   3,C   2,H   9)   -143.4628         0.009774   
    108. D(O   4,C   3,C   2,H   8)   -140.0066         0.009774   
    109. D(O   4,C   3,C   2,H   9)     99.4739         0.009774   
    110. D(H  10,C   3,C   2,C   1)   -137.7433         0.009774   
    111. D(H  10,C   3,C   2,H   8)    100.4468         0.009774   
    112. D(H  10,C   3,C   2,H   9)    -20.0727         0.009774   
    113. D(H  11,C   3,C   2,C   1)     98.8667         0.009774   
    114. D(O   4,C   3,C   2,C   1)    -18.1967         0.009774 C 
    115. D(H  11,C   3,C   2,H   8)    -22.9433         0.009774   
    116. D(C   3,O   4,C   0,C   1)     29.5918         0.014035 C 
    117. D(C   3,O   4,C   0,H   5)    151.2013         0.014035   
    118. D(C   3,O   4,C   0,O  15)    -90.0707         0.014035   
    119. D(C   0,O   4,C   3,C   2)     -6.8732         0.012866 C 
    120. D(C   0,O   4,C   3,H  10)    114.8547         0.012866   
    121. D(C   0,O   4,C   3,H  11)   -127.4272         0.012866   
    122. D(C   0,O  15,C  12,C  16)    -60.0000         0.007762 C 
    123. D(C  12,O  15,C   0,O   4)    -30.0000         0.007793 C 
    124. D(C  12,O  15,C   0,H   5)     87.4197         0.007793   
    125. D(C   0,O  15,C  12,H  14)    179.4409         0.007762   
    126. D(C   0,O  15,C  12,H  13)     60.4571         0.007762   
    127. D(C  12,O  15,C   0,C   1)   -145.3132         0.007793   
    128. D(C  17,C  16,C  12,H  13)    -56.3482         0.009466   
    129. D(H  21,C  16,C  12,H  14)     59.5382         0.009466   
    130. D(C  17,C  16,C  12,O  15)     64.6531         0.009466   
    131. D(O  20,C  16,C  12,H  13)     58.9957         0.009466   
    132. D(O  20,C  16,C  12,H  14)    -57.8415         0.009466   
    133. D(O  20,C  16,C  12,O  15)    179.9970         0.009466 C 
    134. D(C  17,C  16,C  12,H  14)   -173.1855         0.009466   
    135. D(H  21,C  16,C  12,H  13)    176.3755         0.009466   
    136. D(H  21,C  16,C  12,O  15)    -62.6232         0.009466   
    137. D(C  18,C  17,C  16,C  12)     79.1194         0.010904   
    138. D(C  18,C  17,C  16,O  20)    -39.9880         0.010904 C 
    139. D(C  18,C  17,C  16,H  21)   -156.5960         0.010904   
    140. D(O  22,C  17,C  16,C  12)   -163.5837         0.010904   
    141. D(O  22,C  17,C  16,O  20)     77.3089         0.010904   
    142. D(O  22,C  17,C  16,H  21)    -39.2991         0.010904   
    143. D(H  23,C  17,C  16,C  12)    -42.1903         0.010904   
    144. D(H  23,C  17,C  16,O  20)   -161.2977         0.010904   
    145. D(H  23,C  17,C  16,H  21)     82.0942         0.010904   
    146. D(H  24,C  18,C  17,H  23)    -81.8706         0.009864   
    147. D(C  19,C  18,C  17,O  22)    -81.8200         0.009864   
    148. D(C  19,C  18,C  17,H  23)    156.5864         0.009864   
    149. D(H  24,C  18,C  17,C  16)    156.5650         0.009864   
    150. D(C  19,C  18,C  17,C  16)     35.0220         0.009864 C 
    151. D(H  24,C  18,C  17,O  22)     39.7230         0.009864   
    152. D(H  25,C  18,C  17,C  16)    -83.0491         0.009864   
    153. D(H  25,C  18,C  17,O  22)    160.1089         0.009864   
    154. D(H  25,C  18,C  17,H  23)     38.5153         0.009864   
    155. D(H  27,C  19,C  18,H  25)   -143.5008         0.009779   
    156. D(O  20,C  19,C  18,H  24)   -139.9937         0.009779   
    157. D(O  20,C  19,C  18,H  25)     99.4179         0.009779   
    158. D(H  26,C  19,C  18,C  17)   -137.6985         0.009779   
    159. D(H  26,C  19,C  18,H  24)    100.5253         0.009779   
    160. D(H  26,C  19,C  18,H  25)    -20.0632         0.009779   
    161. D(H  27,C  19,C  18,C  17)     98.8639         0.009779   
    162. D(O  20,C  19,C  18,C  17)    -18.2175         0.009779 C 
    163. D(H  27,C  19,C  18,H  24)    -22.9123         0.009779   
    164. D(C  19,O  20,C  16,C  12)    -90.1077         0.014112   
    165. D(C  19,O  20,C  16,C  17)     29.5701         0.014112 C 
    166. D(C  19,O  20,C  16,H  21)    151.2483         0.014112   
    167. D(C  16,O  20,C  19,C  18)     -6.8365         0.012836 C 
    168. D(C  16,O  20,C  19,H  26)    114.8198         0.012836   
    169. D(C  16,O  20,C  19,H  27)   -127.4042         0.012836   
    170. D(H  28,O  22,C  17,C  16)    -55.8428         0.007762   
    171. D(H  28,O  22,C  17,C  18)     55.7026         0.007762   
    172. D(H  28,O  22,C  17,H  23)    179.9056         0.007762   
    -----------------------------------------------------------------

Number of atoms                         .... 29
Number of degrees of freedom            .... 172

         *************************************************************
         *                GEOMETRY OPTIMIZATION CYCLE   1            *
         *************************************************************
---------------------------------
CARTESIAN COORDINATES (ANGSTROEM)
---------------------------------
  C    -21.047802   26.221986   46.251214
  C    -20.360906   27.557996   45.943987
  C    -20.329053   28.222299   47.340852
  C    -20.109996   27.022510   48.296102
  O    -20.472833   25.807326   47.535334
  H    -20.832681   25.427883   45.533365
  H    -19.343869   27.382015   45.576080
  H    -20.897921   28.156796   45.200836
  H    -19.543131   28.978393   47.433744
  H    -21.289111   28.710251   47.547695
  H    -20.733054   27.082631   49.195054
  H    -19.064003   26.913671   48.597184
  C    -23.270846   25.475967   47.424118
  H    -22.855801   25.688983   48.417096
  H    -24.350840   25.666998   47.455155
  O    -22.585820   26.393916   46.375091
  C    -23.067081   23.964952   47.124034
  C    -21.589120   23.570757   47.227901
  C    -21.405006   23.448674   48.759883
  C    -22.769039   22.888831   49.234969
  O    -23.732094   23.145996   48.142060
  H    -23.533181   23.725051   46.166058
  O    -21.354354   22.199754   46.536826
  H    -20.914063   24.304688   46.775876
  H    -20.568066   22.799556   49.035789
  H    -21.219843   24.437633   49.195906
  H    -23.125904   23.374840   50.149017
  H    -22.744165   21.807821   49.394923
  H    -22.019415   21.446822   46.974851

----------------------------
CARTESIAN COORDINATES (A.U.)
----------------------------
  NO LB      ZA    FRAG     MASS         X           Y           Z
   0 C     6.0000    0    12.011  -39.774581   49.552373   87.402129
   1 C     6.0000    0    12.011  -38.476536   52.077066   86.821553
   2 C     6.0000    0    12.011  -38.416343   53.332416   89.461246
   3 C     6.0000    0    12.011  -38.002385   51.065144   91.266407
   4 O     8.0000    0    15.999  -38.688047   48.768779   89.828763
   5 H     1.0000    0     1.008  -39.368062   48.051735   86.045590
   6 H     1.0000    0     1.008  -36.554615   51.744509   86.126309
   7 H     1.0000    0     1.008  -39.491348   53.208632   85.417201
   8 H     1.0000    0     1.008  -36.931166   54.761228   89.636785
   9 H     1.0000    0     1.008  -40.230590   54.254512   89.852123
  10 H     1.0000    0     1.008  -39.179794   51.178756   92.965180
  11 H     1.0000    0     1.008  -36.025745   50.859467   91.835369
  12 C     6.0000    0    12.011  -43.975526   48.142601   89.618596
  13 H     1.0000    0     1.008  -43.191204   48.545143   91.495051
  14 H     1.0000    0     1.008  -46.016418   48.503598   89.677247
  15 O     8.0000    0    15.999  -42.681014   49.877273   87.636221
  16 C     6.0000    0    12.011  -43.590466   45.287196   89.051519
  17 C     6.0000    0    12.011  -40.797525   44.542275   89.247799
  18 C     6.0000    0    12.011  -40.449599   44.311572   92.142824
  19 C     6.0000    0    12.011  -43.027249   43.253622   93.040607
  20 O     8.0000    0    15.999  -44.847158   43.739594   90.975308
  21 H     1.0000    0     1.008  -44.471268   44.833849   87.241207
  22 O     8.0000    0    15.999  -40.353881   41.951456   87.941857
  23 H     1.0000    0     1.008  -39.521851   45.929205   88.393596
  24 H     1.0000    0     1.008  -38.868013   43.084917   92.664211
  25 H     1.0000    0     1.008  -40.099692   46.180434   92.966790
  26 H     1.0000    0     1.008  -43.701625   44.172046   94.767907
  27 H     1.0000    0     1.008  -42.980243   41.210809   93.342877
  28 H     1.0000    0     1.008  -41.610665   40.528621   88.769603

--------------------------------
INTERNAL COORDINATES (ANGSTROEM)
--------------------------------
 C      0   0   0     0.000000000000     0.00000000     0.00000000
 C      1   0   0     1.533334275362     0.00000000     0.00000000
 C      2   1   0     1.547103422529   101.67907390     0.00000000
 C      3   2   1     1.549188819996   103.12737509    35.02687180
 O      1   2   3     1.466801281701   104.24948604   319.98542309
 H      1   2   3     1.091872245274   114.43876658   203.42640133
 H      2   1   3     1.095759553917   110.06782188   117.34000099
 H      2   1   3     1.095088580892   113.12442239   238.72597460
 H      3   2   1     1.094523183857   112.83161078   156.54780790
 H      3   2   1     1.096628013503   110.07982737   276.98070077
 H      4   3   2     1.095413164062   112.52534669   222.25678475
 H      4   3   2     1.093891219455   112.45670684    98.86663270
 C      1   2   3     2.621864603674   135.83778408    53.11057246
 H     13   1   2     1.097106649328    91.66038604   284.82694656
 H     13   1   2     1.097197338677   142.91007276    48.71151681
 O      1   2   3     1.552547583812   111.30349807    79.08752829
 C     13   1   2     1.553942405625    94.53038408   176.32881099
 C     17  13   1     1.533145785632   111.30590895    36.91007277
 C     18  17  13     1.547825571568   101.65377691    79.11978200
 C     19  18  17     1.549103289003   103.13907904    35.02191300
 O     17  13   1     1.466052522934   110.46295463   152.25489053
 H     17  13   1     1.092025640725   109.08946818   269.63331437
 O     18  17  13     1.553173203477   110.03092499   196.41645124
 H     18  17  13     1.094844737851   113.20713827   317.80987835
 H     19  18  17     1.094507195043   112.78259053   156.56495735
 H     19  18  17     1.096559163931   110.02979300   276.95081232
 H     20  19  18     1.095007305912   112.49268702   222.30150189
 H     20  19  18     1.093062669750   112.47344116    98.86386029
 H     23  18  17     1.095937041987   109.68688559   304.15731623

---------------------------
INTERNAL COORDINATES (A.U.)
---------------------------
 C      0   0   0     0.000000000000     0.00000000     0.00000000
 C      1   0   0     2.897581852189     0.00000000     0.00000000
 C      2   1   0     2.923601769431   101.67907390     0.00000000
 C      3   2   1     2.927542599525   103.12737509    35.02687180
 O      1   2   3     2.771852715300   104.24948604   319.98542309
 H      1   2   3     2.063339516798   114.43876658   203.42640133
 H      2   1   3     2.070685465531   110.06782188   117.34000099
 H      2   1   3     2.069417510270   113.12442239   238.72597460
 H      3   2   1     2.068349064717   112.83161078   156.54780790
 H      3   2   1     2.072326616307   110.07982737   276.98070077
 H      4   3   2     2.070030883569   112.52534669   222.25678475
 H      4   3   2     2.067154825070   112.45670684    98.86663270
 C      1   2   3     4.954606061166   135.83778408    53.11057246
 H     13   1   2     2.073231106934    91.66038604   284.82694656
 H     13   1   2     2.073402484967   142.91007276    48.71151681
 O      1   2   3     2.933889743286   111.30349807    79.08752829
 C     13   1   2     2.936525574518    94.53038408   176.32881099
 C     17  13   1     2.897225658219   111.30590895    36.91007277
 C     18  17  13     2.924966433344   101.65377691    79.11978200
 C     19  18  17     2.927380969372   103.13907904    35.02191300
 O     17  13   1     2.770437766289   110.46295463   152.25489053
 H     17  13   1     2.063629392189   109.08946818   269.63331437
 O     18  17  13     2.935071993117   110.03092499   196.41645124
 H     18  17  13     2.068956713703   113.20713827   317.80987835
 H     19  18  17     2.068318850237   112.78259053   156.56495735
 H     19  18  17     2.072196509470   110.02979300   276.95081232
 H     20  19  18     2.069263922816   112.49268702   222.30150189
 H     20  19  18     2.065589093039   112.47344116    98.86386029
 H     23  18  17     2.071020869376   109.68688559   304.15731623

---------------------
BASIS SET INFORMATION
---------------------
There are 3 groups of distinct atoms

 Group   1 Type C   : 10s4p contracted to 3s2p pattern {631/31}
 Group   2 Type O   : 10s4p contracted to 3s2p pattern {631/31}
 Group   3 Type H   : 4s contracted to 2s pattern {31}

Atom   0C    basis set group =>   1
Atom   1C    basis set group =>   1
Atom   2C    basis set group =>   1
Atom   3C    basis set group =>   1
Atom   4O    basis set group =>   2
Atom   5H    basis set group =>   3
Atom   6H    basis set group =>   3
Atom   7H    basis set group =>   3
Atom   8H    basis set group =>   3
Atom   9H    basis set group =>   3
Atom  10H    basis set group =>   3
Atom  11H    basis set group =>   3
Atom  12C    basis set group =>   1
Atom  13H    basis set group =>   3
Atom  14H    basis set group =>   3
Atom  15O    basis set group =>   2
Atom  16C    basis set group =>   1
Atom  17C    basis set group =>   1
Atom  18C    basis set group =>   1
Atom  19C    basis set group =>   1
Atom  20O    basis set group =>   2
Atom  21H    basis set group =>   3
Atom  22O    basis set group =>   2
Atom  23H    basis set group =>   3
Atom  24H    basis set group =>   3
Atom  25H    basis set group =>   3
Atom  26H    basis set group =>   3
Atom  27H    basis set group =>   3
Atom  28H    basis set group =>   3
------------------------------------------------------------------------------
                           ORCA GTO INTEGRAL CALCULATION
------------------------------------------------------------------------------

                         BASIS SET STATISTICS AND STARTUP INFO

 # of primitive gaussian shells          ...  246
 # of primitive gaussian functions       ...  350
 # of contracted shells                  ...   97
 # of contracted basis functions         ...  149
 Highest angular momentum                ...    1
 Maximum contraction depth               ...    6
 Integral package used                   ... LIBINT
 Integral threshhold            Thresh   ...  2.500e-11
 Primitive cut-off              TCut     ...  2.500e-12


------------------------------ INTEGRAL EVALUATION ----------------------------


 * One electron integrals 
 Pre-screening matrix                    ... done
 Shell pair data                         ... done (   0.004 sec)

-------------------------------------------------------------------------------
                                 ORCA SCF
-------------------------------------------------------------------------------

------------
SCF SETTINGS
------------
Hamiltonian:
 Density Functional     Method          .... DFT(GTOs)
 Exchange Functional    Exchange        .... B88
   X-Alpha parameter    XAlpha          ....  0.666667
   Becke's b parameter  XBeta           ....  0.004200
 Correlation Functional Correlation     .... LYP
 LDA part of GGA corr.  LDAOpt          .... VWN-5
 Gradients option       PostSCFGGA      .... off
 Hybrid DFT is turned on
   Fraction HF Exchange ScalHFX         ....  0.200000
   Scaling of DF-GGA-X  ScalDFX         ....  0.720000
   Scaling of DF-GGA-C  ScalDFC         ....  0.810000
   Scaling of DF-LDA-C  ScalLDAC        ....  1.000000
   Perturbative correction              ....  0.000000
   Density functional embedding theory  .... OFF
   NL short-range parameter             ....  4.800000


General Settings:
 Integral files         IntName         .... project_8050/ensemble_330_300
 Hartree-Fock type      HFTyp           .... RHF
 Total Charge           Charge          ....    0
 Multiplicity           Mult            ....    1
 Number of Electrons    NEL             ....  102
 Basis Dimension        Dim             ....  149
 Nuclear Repulsion      ENuc            ....    909.2935559414 Eh

Convergence Acceleration:
 DIIS                   CNVDIIS         .... on
   Start iteration      DIISMaxIt       ....    12
   Startup error        DIISStart       ....  0.200000
   # of expansion vecs  DIISMaxEq       ....     5
   Bias factor          DIISBfac        ....   1.050
   Max. coefficient     DIISMaxC        ....  10.000
 Newton-Raphson         CNVNR           .... off
 SOSCF                  CNVSOSCF        .... on
   Start iteration      SOSCFMaxIt      ....   150
   Startup grad/error   SOSCFStart      ....  0.003300
 Level Shifting         CNVShift        .... on
   Level shift para.    LevelShift      ....    0.2500
   Turn off err/grad.   ShiftErr        ....    0.0010
 Zerner damping         CNVZerner       .... off
 Static damping         CNVDamp         .... on
   Fraction old density DampFac         ....    0.7000
   Max. Damping (<1)    DampMax         ....    0.9800
   Min. Damping (>=0)   DampMin         ....    0.0000
   Turn off err/grad.   DampErr         ....    0.1000
 Fernandez-Rico         CNVRico         .... off

SCF Procedure:
 Maximum # iterations   MaxIter         ....   125
 SCF integral mode      SCFMode         .... Direct
   Integral package                     .... LIBINT
 Reset frequency        DirectResetFreq ....    20
 Integral Threshold     Thresh          ....  2.500e-11 Eh
 Primitive CutOff       TCut            ....  2.500e-12 Eh

Convergence Tolerance:
 Convergence Check Mode ConvCheckMode   .... Total+1el-Energy
 Convergence forced     ConvForced      .... 0
 Energy Change          TolE            ....  1.000e-08 Eh
 1-El. energy change                    ....  1.000e-05 Eh
 Orbital Gradient       TolG            ....  1.000e-05
 Orbital Rotation angle TolX            ....  1.000e-05
 DIIS Error             TolErr          ....  5.000e-07


Diagonalization of the overlap matrix:
Smallest eigenvalue                        ... 4.064e-03
Time for diagonalization                   ...    0.007 sec
Threshold for overlap eigenvalues          ... 1.000e-08
Number of eigenvalues below threshold      ... 0
Time for construction of square roots      ...    0.008 sec
Total time needed                          ...    0.015 sec

-------------------
DFT GRID GENERATION
-------------------

General Integration Accuracy     IntAcc      ...  4.340
Radial Grid Type                 RadialGrid  ... Gauss-Chebyshev
Angular Grid (max. acc.)         AngularGrid ... Lebedev-110
Angular grid pruning method      GridPruning ... 3 (G Style)
Weight generation scheme         WeightScheme... Becke
Basis function cutoff            BFCut       ...    1.0000e-11
Integration weight cutoff        WCut        ...    1.0000e-14
Grids for H and He will be reduced by one unit

# of grid points (after initial pruning)     ...  34472 (   0.0 sec)
# of grid points (after weights+screening)   ...  30803 (   0.5 sec)
nearest neighbour list constructed           ...    0.0 sec
Grid point re-assignment to atoms done       ...    0.0 sec
Grid point division into batches done        ...    0.0 sec
Reduced shell lists constructed in    0.6 sec

Total number of grid points                  ...    30803
Total number of batches                      ...      495
Average number of points per batch           ...       62
Average number of grid points per atom       ...     1062
Average number of shells per batch           ...    62.89 (64.84%)
Average number of basis functions per batch  ...   102.11 (68.53%)
Average number of large shells per batch     ...    45.11 (71.73%)
Average number of large basis fcns per batch ...    74.81 (73.27%)
Maximum spatial batch extension              ...  20.94, 18.92, 21.29 au
Average spatial batch extension              ...   3.31,  3.25,  3.29 au

Time for grid setup =    1.184 sec

------------------------------
INITIAL GUESS: MODEL POTENTIAL
------------------------------
Loading Hartree-Fock densities                     ... done
Calculating cut-offs                               ... done
Setting up the integral package                    ... done
Initializing the effective Hamiltonian             ... done
Starting the Coulomb interaction                   ... done (   0.7 sec)
Reading the grid                                   ... done
Mapping shells                                     ... done
Starting the XC term evaluation                    ... done (   0.8 sec)
  promolecular density results
     # of electrons  =    101.992356290
     EX              =    -83.694254585
     EC              =     -3.469568681
     EX+EC           =    -87.163823266
Transforming the Hamiltonian                       ... done (   0.0 sec)
Diagonalizing the Hamiltonian                      ... done (   0.0 sec)
Back transforming the eigenvectors                 ... done (   0.0 sec)
Now organizing SCF variables                       ... done
                      ------------------
                      INITIAL GUESS DONE (   2.8 sec)
                      ------------------
--------------
SCF ITERATIONS
--------------
ITER       Energy         Delta-E        Max-DP      RMS-DP      [F,P]     Damp
               ***  Starting incremental Fock matrix formation  ***
  0   -652.5241400440   0.000000000000 0.07739271  0.00293989  0.2399824 0.7000
  1   -652.6597802280  -0.135640184078 0.04255313  0.00202817  0.0933323 0.7000
                               ***Turning on DIIS***
  2   -652.7115445999  -0.051764371909 0.05270467  0.00332386  0.0293804 0.0000
  3   -652.7959535735  -0.084408973599 0.03162559  0.00132571  0.0529826 0.0000
  4   -652.8131372847  -0.017183711110 0.00863874  0.00042541  0.0099903 0.0000
  5   -652.8140557058  -0.000918421139 0.00283553  0.00013268  0.0042547 0.0000
                      *** Initiating the SOSCF procedure ***
                           *** Shutting down DIIS ***
                      *** Re-Reading the Fockian *** 
                      *** Removing any level shift *** 
ITER      Energy       Delta-E        Grad      Rot      Max-DP    RMS-DP
  6   -652.81413092  -0.0000752177  0.000257  0.000257  0.000955  0.000056
               *** Restarting incremental Fock matrix formation ***
  7   -652.81413366  -0.0000027375  0.000181  0.000270  0.001203  0.000036
  8   -652.81413067   0.0000029957  0.000316  0.000189  0.000813  0.000023
  9   -652.81413522  -0.0000045585  0.000022  0.000042  0.000222  0.000007
 10   -652.81413514   0.0000000790  0.000038  0.000027  0.000134  0.000004
 11   -652.81413529  -0.0000001458  0.000006  0.000007  0.000038  0.000001
 12   -652.81413529   0.0000000024  0.000009  0.000004  0.000022  0.000001
                  ***Gradient check signals convergence***
              ***Rediagonalizing the Fockian in SOSCF/NRSCF***

               *****************************************************
               *                     SUCCESS                       *
               *           SCF CONVERGED AFTER  13 CYCLES          *
               *****************************************************

Setting up the final grid:

General Integration Accuracy     IntAcc      ...  4.670
Radial Grid Type                 RadialGrid  ... Gauss-Chebyshev
Angular Grid (max. acc.)         AngularGrid ... Lebedev-302
Angular grid pruning method      GridPruning ... 3 (G Style)
Weight generation scheme         WeightScheme... Becke
Basis function cutoff            BFCut       ...    1.0000e-11
Integration weight cutoff        WCut        ...    1.0000e-14
Grids for H and He will be reduced by one unit

# of grid points (after initial pruning)     ... 135060 (   0.1 sec)
# of grid points (after weights+screening)   ... 118043 (   1.2 sec)
nearest neighbour list constructed           ...    0.0 sec
Grid point re-assignment to atoms done       ...    0.0 sec
Grid point division into batches done        ...    0.6 sec
Reduced shell lists constructed in    2.6 sec

Total number of grid points                  ...   118043
Total number of batches                      ...     1858
Average number of points per batch           ...       63
Average number of grid points per atom       ...     4070
Average number of shells per batch           ...    57.69 (59.47%)
Average number of basis functions per batch  ...    93.94 (63.05%)
Average number of large shells per batch     ...    40.41 (70.04%)
Average number of large basis fcns per batch ...    67.19 (71.52%)
Maximum spatial batch extension              ...  19.07, 19.86, 19.98 au
Average spatial batch extension              ...   2.15,  2.15,  2.20 au

Final grid set up in    4.1 sec
Final integration                            ... done (   4.8 sec)
Change in XC energy                          ...    -0.000153267
Integrated number of electrons               ...   102.000153525
Previous integrated no of electrons          ...   101.998114740

----------------
TOTAL SCF ENERGY
----------------

Total Energy       :         -652.81428856 Eh          -17763.97989 eV

Components:
Nuclear Repulsion  :          909.29355594 Eh           24743.13557 eV
Electronic Energy  :        -1562.10784450 Eh          -42507.11547 eV
One Electron Energy:        -2696.44657210 Eh          -73374.04149 eV
Two Electron Energy:         1134.33872760 Eh           30866.92602 eV

Virial components:
Potential Energy   :        -1301.92346798 Eh          -35427.13864 eV
Kinetic Energy     :          649.10917942 Eh           17663.15875 eV
Virial Ratio       :            2.00570799


DFT components:
N(Alpha)           :       51.000076762415 electrons
N(Beta)            :       51.000076762415 electrons
N(Total)           :      102.000153524830 electrons
E(X)               :      -67.620132592285 Eh       
E(C)               :       -4.078648731328 Eh       
E(XC)              :      -71.698781323613 Eh       
DFET-embed. en.    :        0.000000000000 Eh       

---------------
SCF CONVERGENCE
---------------

  Last Energy change         ...   -4.6949e-09  Tolerance :   1.0000e-08
  Last MAX-Density change    ...    2.2091e-06  Tolerance :   1.0000e-07
  Last RMS-Density change    ...    1.0370e-07  Tolerance :   5.0000e-09
  Last Orbital Gradient      ...    3.1645e-07  Tolerance :   1.0000e-05
  Last Orbital Rotation      ...    5.2306e-07  Tolerance :   1.0000e-05

             **** THE GBW FILE WAS UPDATED (project_8050/ensemble_330_300.gbw) ****
             **** DENSITY FILE WAS UPDATED (project_8050/ensemble_330_300.scfp) ****
             **** ENERGY FILE WAS UPDATED (project_8050/ensemble_330_300.en.tmp) ****
             **** THE GBW FILE WAS UPDATED (project_8050/ensemble_330_300.gbw) ****
             **** DENSITY FILE WAS UPDATED (project_8050/ensemble_330_300.scfp) ****
----------------
ORBITAL ENERGIES
----------------

  NO   OCC          E(Eh)            E(eV) 
   0   2.0000     -19.167180      -521.5655 
   1   2.0000     -19.148065      -521.0453 
   2   2.0000     -19.137378      -520.7545 
   3   2.0000     -19.127775      -520.4932 
   4   2.0000     -10.294213      -280.1198 
   5   2.0000     -10.242705      -278.7182 
   6   2.0000     -10.229584      -278.3611 
   7   2.0000     -10.225610      -278.2530 
   8   2.0000     -10.223019      -278.1825 
   9   2.0000     -10.218774      -278.0670 
  10   2.0000     -10.200454      -277.5685 
  11   2.0000     -10.197917      -277.4994 
  12   2.0000     -10.175127      -276.8793 
  13   2.0000      -1.058292       -28.7976 
  14   2.0000      -1.021695       -27.8017 
  15   2.0000      -0.966098       -26.2889 
  16   2.0000      -0.947090       -25.7716 
  17   2.0000      -0.801773       -21.8174 
  18   2.0000      -0.766255       -20.8509 
  19   2.0000      -0.759038       -20.6545 
  20   2.0000      -0.744202       -20.2508 
  21   2.0000      -0.664802       -18.0902 
  22   2.0000      -0.615960       -16.7611 
  23   2.0000      -0.603263       -16.4156 
  24   2.0000      -0.582449       -15.8493 
  25   2.0000      -0.570865       -15.5340 
  26   2.0000      -0.525181       -14.2909 
  27   2.0000      -0.509348       -13.8601 
  28   2.0000      -0.494314       -13.4510 
  29   2.0000      -0.474420       -12.9096 
  30   2.0000      -0.464955       -12.6521 
  31   2.0000      -0.447403       -12.1744 
  32   2.0000      -0.444743       -12.1021 
  33   2.0000      -0.426672       -11.6103 
  34   2.0000      -0.416830       -11.3425 
  35   2.0000      -0.409453       -11.1418 
  36   2.0000      -0.404369       -11.0034 
  37   2.0000      -0.385492       -10.4898 
  38   2.0000      -0.375605       -10.2207 
  39   2.0000      -0.367490        -9.9999 
  40   2.0000      -0.359215        -9.7747 
  41   2.0000      -0.354100        -9.6355 
  42   2.0000      -0.344427        -9.3723 
  43   2.0000      -0.335738        -9.1359 
  44   2.0000      -0.316657        -8.6167 
  45   2.0000      -0.310870        -8.4592 
  46   2.0000      -0.290391        -7.9019 
  47   2.0000      -0.276364        -7.5202 
  48   2.0000      -0.266268        -7.2455 
  49   2.0000      -0.250938        -6.8284 
  50   2.0000      -0.233005        -6.3404 
  51   0.0000       0.046205         1.2573 
  52   0.0000       0.059616         1.6222 
  53   0.0000       0.069824         1.9000 
  54   0.0000       0.093060         2.5323 
  55   0.0000       0.102183         2.7805 
  56   0.0000       0.106045         2.8856 
  57   0.0000       0.115130         3.1329 
  58   0.0000       0.123238         3.3535 
  59   0.0000       0.131932         3.5901 
  60   0.0000       0.134209         3.6520 
  61   0.0000       0.147043         4.0012 
  62   0.0000       0.151709         4.1282 
  63   0.0000       0.153530         4.1778 
  64   0.0000       0.162411         4.4194 
  65   0.0000       0.171167         4.6577 
  66   0.0000       0.176114         4.7923 
  67   0.0000       0.190000         5.1702 
  68   0.0000       0.194924         5.3041 
  69   0.0000       0.199028         5.4158 
  70   0.0000       0.205633         5.5956 
  71   0.0000       0.207671         5.6510 
  72   0.0000       0.223615         6.0849 
  73   0.0000       0.238398         6.4871 
  74   0.0000       0.257702         7.0124 
  75   0.0000       0.261936         7.1276 
  76   0.0000       0.266085         7.2405 
  77   0.0000       0.273537         7.4433 
  78   0.0000       0.282214         7.6794 
  79   0.0000       0.309980         8.4350 
  80   0.0000       0.325955         8.8697 
  81   0.0000       0.514019        13.9872 
  82   0.0000       0.528945        14.3933 
  83   0.0000       0.538529        14.6541 
  84   0.0000       0.552115        15.0238 
  85   0.0000       0.566715        15.4211 
  86   0.0000       0.569859        15.5067 
  87   0.0000       0.584073        15.8934 
  88   0.0000       0.593119        16.1396 
  89   0.0000       0.598110        16.2754 
  90   0.0000       0.605845        16.4859 
  91   0.0000       0.609695        16.5906 
  92   0.0000       0.620455        16.8834 
  93   0.0000       0.636769        17.3274 
  94   0.0000       0.644892        17.5484 
  95   0.0000       0.652424        17.7534 
  96   0.0000       0.659153        17.9365 
  97   0.0000       0.680995        18.5308 
  98   0.0000       0.683950        18.6112 
  99   0.0000       0.728825        19.8323 
 100   0.0000       0.754632        20.5346 
 101   0.0000       0.761108        20.7108 
 102   0.0000       0.796643        21.6778 
 103   0.0000       0.808204        21.9923 
 104   0.0000       0.820956        22.3394 
 105   0.0000       0.828916        22.5560 
 106   0.0000       0.848349        23.0848 
 107   0.0000       0.863596        23.4996 
 108   0.0000       0.871858        23.7245 
 109   0.0000       0.880960        23.9721 
 110   0.0000       0.888673        24.1820 
 111   0.0000       0.898430        24.4475 
 112   0.0000       0.910788        24.7838 
 113   0.0000       0.916738        24.9457 
 114   0.0000       0.926784        25.2191 
 115   0.0000       0.932486        25.3742 
 116   0.0000       0.947677        25.7876 
 117   0.0000       0.961676        26.1685 
 118   0.0000       0.962976        26.2039 
 119   0.0000       0.974302        26.5121 
 120   0.0000       0.984663        26.7940 
 121   0.0000       0.992843        27.0166 
 122   0.0000       1.034789        28.1581 
 123   0.0000       1.060094        28.8466 
 124   0.0000       1.077126        29.3101 
 125   0.0000       1.080963        29.4145 
 126   0.0000       1.091681        29.7062 
 127   0.0000       1.111047        30.2331 
 128   0.0000       1.173744        31.9392 
 129   0.0000       1.179535        32.0968 
 130   0.0000       1.187237        32.3063 
 131   0.0000       1.223793        33.3011 
 132   0.0000       1.307177        35.5701 
 133   0.0000       1.317389        35.8480 
 134   0.0000       1.366346        37.1802 
 135   0.0000       1.383853        37.6565 
 136   0.0000       1.399651        38.0864 
 137   0.0000       1.410146        38.3720 
 138   0.0000       1.459880        39.7254 
 139   0.0000       1.503578        40.9144 
 140   0.0000       1.547402        42.1069 
 141   0.0000       1.601833        43.5881 
 142   0.0000       1.642856        44.7044 
 143   0.0000       1.697182        46.1827 
 144   0.0000       1.808893        49.2225 
 145   0.0000       1.888129        51.3786 
 146   0.0000       1.905099        51.8404 
 147   0.0000       2.070974        56.3541 
 148   0.0000       2.174918        59.1825 

                    ********************************
                    * MULLIKEN POPULATION ANALYSIS *
                    ********************************

-----------------------
MULLIKEN ATOMIC CHARGES
-----------------------
   0 C :    0.260408
   1 C :   -0.270727
   2 C :   -0.301599
   3 C :    0.001394
   4 O :   -0.539965
   5 H :    0.187351
   6 H :    0.155176
   7 H :    0.170417
   8 H :    0.147026
   9 H :    0.167383
  10 H :    0.146694
  11 H :    0.152723
  12 C :   -0.026412
  13 H :    0.133768
  14 H :    0.164833
  15 O :   -0.518964
  16 C :    0.059530
  17 C :    0.105934
  18 C :   -0.295289
  19 C :   -0.031985
  20 O :   -0.525933
  21 H :    0.163595
  22 O :   -0.616009
  23 H :    0.184324
  24 H :    0.150958
  25 H :    0.157477
  26 H :    0.138107
  27 H :    0.140604
  28 H :    0.339183
Sum of atomic charges:   -0.0000000

--------------------------------
MULLIKEN REDUCED ORBITAL CHARGES
--------------------------------
  0 C s       :     3.235094  s :     3.235094
      pz      :     0.769496  p :     2.504498
      px      :     0.699562
      py      :     1.035441
  1 C s       :     3.314208  s :     3.314208
      pz      :     0.985086  p :     2.956519
      px      :     1.030340
      py      :     0.941094
  2 C s       :     3.318286  s :     3.318286
      pz      :     0.904222  p :     2.983313
      px      :     1.091581
      py      :     0.987511
  3 C s       :     3.258725  s :     3.258725
      pz      :     0.934444  p :     2.739881
      px      :     1.063640
      py      :     0.741798
  4 O s       :     3.943910  s :     3.943910
      pz      :     1.332048  p :     4.596056
      px      :     1.738972
      py      :     1.525036
  5 H s       :     0.812649  s :     0.812649
  6 H s       :     0.844824  s :     0.844824
  7 H s       :     0.829583  s :     0.829583
  8 H s       :     0.852974  s :     0.852974
  9 H s       :     0.832617  s :     0.832617
 10 H s       :     0.853306  s :     0.853306
 11 H s       :     0.847277  s :     0.847277
 12 C s       :     3.294339  s :     3.294339
      pz      :     0.882216  p :     2.732073
      px      :     1.012829
      py      :     0.837028
 13 H s       :     0.866232  s :     0.866232
 14 H s       :     0.835167  s :     0.835167
 15 O s       :     3.951421  s :     3.951421
      pz      :     1.632464  p :     4.567543
      px      :     1.255383
      py      :     1.679697
 16 C s       :     3.274562  s :     3.274562
      pz      :     0.919979  p :     2.665908
      px      :     0.906758
      py      :     0.839172
 17 C s       :     3.297253  s :     3.297253
      pz      :     0.883236  p :     2.596812
      px      :     0.941700
      py      :     0.771877
 18 C s       :     3.318503  s :     3.318503
      pz      :     0.936889  p :     2.976786
      px      :     0.967623
      py      :     1.072273
 19 C s       :     3.267004  s :     3.267004
      pz      :     0.861974  p :     2.764982
      px      :     0.838974
      py      :     1.064034
 20 O s       :     3.944830  s :     3.944830
      pz      :     1.313457  p :     4.581104
      px      :     1.583376
      py      :     1.684271
 21 H s       :     0.836405  s :     0.836405
 22 O s       :     3.955165  s :     3.955165
      pz      :     1.719060  p :     4.660844
      px      :     1.699630
      py      :     1.242154
 23 H s       :     0.815676  s :     0.815676
 24 H s       :     0.849042  s :     0.849042
 25 H s       :     0.842523  s :     0.842523
 26 H s       :     0.861893  s :     0.861893
 27 H s       :     0.859396  s :     0.859396
 28 H s       :     0.660817  s :     0.660817


                     *******************************
                     * LOEWDIN POPULATION ANALYSIS *
                     *******************************

----------------------
LOEWDIN ATOMIC CHARGES
----------------------
   0 C :    0.173287
   1 C :   -0.211607
   2 C :   -0.214861
   3 C :   -0.030074
   4 O :   -0.320251
   5 H :    0.117351
   6 H :    0.120293
   7 H :    0.132073
   8 H :    0.116223
   9 H :    0.121684
  10 H :    0.103639
  11 H :    0.107733
  12 C :   -0.043935
  13 H :    0.098407
  14 H :    0.124384
  15 O :   -0.363215
  16 C :    0.013821
  17 C :    0.027561
  18 C :   -0.233414
  19 C :   -0.041808
  20 O :   -0.329370
  21 H :    0.118878
  22 O :   -0.451366
  23 H :    0.148239
  24 H :    0.122140
  25 H :    0.118030
  26 H :    0.099450
  27 H :    0.098578
  28 H :    0.278130

-------------------------------
LOEWDIN REDUCED ORBITAL CHARGES
-------------------------------
  0 C s       :     2.982836  s :     2.982836
      pz      :     0.908208  p :     2.843877
      px      :     0.839568
      py      :     1.096100
  1 C s       :     2.974274  s :     2.974274
      pz      :     1.078021  p :     3.237332
      px      :     1.106241
      py      :     1.053070
  2 C s       :     2.972768  s :     2.972768
      pz      :     1.028928  p :     3.242092
      px      :     1.136259
      py      :     1.076906
  3 C s       :     2.983018  s :     2.983018
      pz      :     1.036885  p :     3.047056
      px      :     1.122706
      py      :     0.887465
  4 O s       :     3.606672  s :     3.606672
      pz      :     1.391742  p :     4.713579
      px      :     1.769406
      py      :     1.552431
  5 H s       :     0.882649  s :     0.882649
  6 H s       :     0.879707  s :     0.879707
  7 H s       :     0.867927  s :     0.867927
  8 H s       :     0.883777  s :     0.883777
  9 H s       :     0.878316  s :     0.878316
 10 H s       :     0.896361  s :     0.896361
 11 H s       :     0.892267  s :     0.892267
 12 C s       :     3.006438  s :     3.006438
      pz      :     0.980668  p :     3.037496
      px      :     1.078517
      py      :     0.978312
 13 H s       :     0.901593  s :     0.901593
 14 H s       :     0.875616  s :     0.875616
 15 O s       :     3.655137  s :     3.655137
      pz      :     1.672462  p :     4.708079
      px      :     1.329077
      py      :     1.706540
 16 C s       :     2.969941  s :     2.969941
      pz      :     0.996464  p :     3.016238
      px      :     1.026728
      py      :     0.993046
 17 C s       :     2.980845  s :     2.980845
      pz      :     1.021324  p :     2.991595
      px      :     1.080923
      py      :     0.889348
 18 C s       :     2.980910  s :     2.980910
      pz      :     1.054493  p :     3.252504
      px      :     1.070178
      py      :     1.127833
 19 C s       :     2.983760  s :     2.983760
      pz      :     0.969154  p :     3.058048
      px      :     0.962774
      py      :     1.126120
 20 O s       :     3.602435  s :     3.602435
      pz      :     1.377644  p :     4.726935
      px      :     1.630097
      py      :     1.719194
 21 H s       :     0.881122  s :     0.881122
 22 O s       :     3.693419  s :     3.693419
      pz      :     1.742918  p :     4.757947
      px      :     1.719785
      py      :     1.295244
 23 H s       :     0.851761  s :     0.851761
 24 H s       :     0.877860  s :     0.877860
 25 H s       :     0.881970  s :     0.881970
 26 H s       :     0.900550  s :     0.900550
 27 H s       :     0.901422  s :     0.901422
 28 H s       :     0.721870  s :     0.721870


                      *****************************
                      * MAYER POPULATION ANALYSIS *
                      *****************************

  NA   - Mulliken gross atomic population
  ZA   - Total nuclear charge
  QA   - Mulliken gross atomic charge
  VA   - Mayer's total valence
  BVA  - Mayer's bonded valence
  FA   - Mayer's free valence

  ATOM       NA         ZA         QA         VA         BVA        FA
  0 C      5.7396     6.0000     0.2604     3.6156     3.6156    -0.0000
  1 C      6.2707     6.0000    -0.2707     3.7259     3.7259     0.0000
  2 C      6.3016     6.0000    -0.3016     3.7615     3.7615    -0.0000
  3 C      5.9986     6.0000     0.0014     3.6421     3.6421    -0.0000
  4 O      8.5400     8.0000    -0.5400     1.7686     1.7686     0.0000
  5 H      0.8126     1.0000     0.1874     0.9123     0.9123    -0.0000
  6 H      0.8448     1.0000     0.1552     0.9303     0.9303     0.0000
  7 H      0.8296     1.0000     0.1704     0.9348     0.9348    -0.0000
  8 H      0.8530     1.0000     0.1470     0.9357     0.9357     0.0000
  9 H      0.8326     1.0000     0.1674     0.9332     0.9332    -0.0000
 10 H      0.8533     1.0000     0.1467     0.9280     0.9280     0.0000
 11 H      0.8473     1.0000     0.1527     0.9278     0.9278    -0.0000
 12 C      6.0264     6.0000    -0.0264     3.6244     3.6244    -0.0000
 13 H      0.8662     1.0000     0.1338     0.9347     0.9347     0.0000
 14 H      0.8352     1.0000     0.1648     0.9338     0.9338     0.0000
 15 O      8.5190     8.0000    -0.5190     1.7778     1.7778     0.0000
 16 C      5.9405     6.0000     0.0595     3.5699     3.5699    -0.0000
 17 C      5.8941     6.0000     0.1059     3.5910     3.5910    -0.0000
 18 C      6.2953     6.0000    -0.2953     3.7072     3.7072    -0.0000
 19 C      6.0320     6.0000    -0.0320     3.6648     3.6648    -0.0000
 20 O      8.5259     8.0000    -0.5259     1.7585     1.7585     0.0000
 21 H      0.8364     1.0000     0.1636     0.9350     0.9350    -0.0000
 22 O      8.6160     8.0000    -0.6160     1.7400     1.7400     0.0000
 23 H      0.8157     1.0000     0.1843     0.9380     0.9380     0.0000
 24 H      0.8490     1.0000     0.1510     0.9423     0.9423     0.0000
 25 H      0.8425     1.0000     0.1575     0.9377     0.9377     0.0000
 26 H      0.8619     1.0000     0.1381     0.9287     0.9287    -0.0000
 27 H      0.8594     1.0000     0.1406     0.9298     0.9298    -0.0000
 28 H      0.6608     1.0000     0.3392     0.8546     0.8546    -0.0000

  Mayer bond orders larger than 0.100000
B(  0-C ,  1-C ) :   0.9421 B(  0-C ,  4-O ) :   0.8422 B(  0-C ,  5-H ) :   0.9011 
B(  0-C , 15-O ) :   0.8600 B(  1-C ,  2-C ) :   0.9535 B(  1-C ,  6-H ) :   0.9334 
B(  1-C ,  7-H ) :   0.9325 B(  2-C ,  3-C ) :   0.9556 B(  2-C ,  8-H ) :   0.9439 
B(  2-C ,  9-H ) :   0.9426 B(  3-C ,  4-O ) :   0.8119 B(  3-C , 10-H ) :   0.9328 
B(  3-C , 11-H ) :   0.9401 B( 12-C , 13-H ) :   0.9205 B( 12-C , 14-H ) :   0.9332 
B( 12-C , 15-O ) :   0.8410 B( 12-C , 16-C ) :   0.8729 B( 16-C , 17-C ) :   0.9117 
B( 16-C , 20-O ) :   0.8359 B( 16-C , 21-H ) :   0.9277 B( 17-C , 18-C ) :   0.9150 
B( 17-C , 22-O ) :   0.8584 B( 17-C , 23-H ) :   0.8778 B( 18-C , 19-C ) :   0.9395 
B( 18-C , 24-H ) :   0.9404 B( 18-C , 25-H ) :   0.9236 B( 19-C , 20-O ) :   0.8422 
B( 19-C , 26-H ) :   0.9367 B( 19-C , 27-H ) :   0.9375 B( 22-O , 28-H ) :   0.8147 


-------
TIMINGS
-------

Total SCF time: 0 days 0 hours 2 min 45 sec 

Total time                  ....     165.268 sec
Sum of individual times     ....     161.649 sec  ( 97.8%)

Fock matrix formation       ....     154.484 sec  ( 93.5%)
  XC integration            ....      22.610 sec  ( 14.6% of F)
    Basis function eval.    ....       4.661 sec  ( 20.6% of XC)
    Density eval.           ....       2.169 sec  (  9.6% of XC)
    XC-Functional eval.     ....       0.926 sec  (  4.1% of XC)
    XC-Potential eval.      ....       2.982 sec  ( 13.2% of XC)
Diagonalization             ....       0.074 sec  (  0.0%)
Density matrix formation    ....       0.009 sec  (  0.0%)
Population analysis         ....       0.043 sec  (  0.0%)
Initial guess               ....       1.592 sec  (  1.0%)
Orbital Transformation      ....       0.000 sec  (  0.0%)
Orbital Orthonormalization  ....       0.000 sec  (  0.0%)
DIIS solution               ....       0.057 sec  (  0.0%)
SOSCF solution              ....       0.110 sec  (  0.1%)
Grid generation             ....       5.280 sec  (  3.2%)

-------------------------   --------------------
FINAL SINGLE POINT ENERGY      -652.814288559322
-------------------------   --------------------

------------------------------------------------------------------------------
                         ORCA SCF GRADIENT CALCULATION
------------------------------------------------------------------------------

Gradient of the Kohn-Sham DFT energy:
Kohn-Sham wavefunction type      ... RKS
Hartree-Fock exchange scaling    ...    0.200
Number of operators              ...    1
Number of atoms                  ...   29
Basis set dimensions             ...  149
Integral neglect threshold       ... 2.5e-11
Integral primitive cutoff        ... 2.5e-12

Nuclear repulsion gradient       ... done
One Electron Gradient            ... done
Pre-screening matrix             ... done
Starting the two electron gradient:
Two electron gradient done
Exchange-correlation gradient    ... done

------------------
CARTESIAN GRADIENT
------------------

   1   C   :    0.020164844   -0.007447076   -0.006126891
   2   C   :    0.014473319   -0.003573559   -0.004883169
   3   C   :    0.000251185   -0.001153188   -0.001801136
   4   C   :   -0.003893853   -0.008736473   -0.003329001
   5   O   :   -0.002130718   -0.031342491    0.008645141
   6   H   :    0.003818629   -0.004694821    0.001725200
   7   H   :    0.000944121    0.003755111    0.000375740
   8   H   :    0.000624624    0.002379533   -0.001297191
   9   H   :   -0.000711976    0.000760252   -0.000022454
  10   H   :   -0.000806414    0.001774497    0.001124506
  11   H   :   -0.000076519    0.001303595    0.001044635
  12   H   :    0.000044954    0.001162971    0.000599501
  13   C   :   -0.017611946    0.002654915    0.008428083
  14   H   :    0.000446319   -0.004495027    0.003297167
  15   H   :   -0.005869057   -0.010161177    0.009730916
  16   O   :   -0.014485756    0.016383835   -0.015556175
  17   C   :   -0.005229241   -0.011837074    0.007951513
  18   C   :    0.002584365    0.041258197    0.006070371
  19   C   :    0.003031936    0.004599737   -0.000708020
  20   C   :   -0.002858282   -0.000463377   -0.003290054
  21   O   :    0.002528357   -0.003811364   -0.001502386
  22   H   :   -0.003203038    0.002743048    0.000732286
  23   O   :    0.039007880    0.014748299   -0.035970480
  24   H   :    0.005969618    0.040742149   -0.005665856
  25   H   :    0.000361827    0.000016865    0.003339954
  26   H   :   -0.000379128    0.003920562    0.002814653
  27   H   :    0.000411095    0.001130388    0.000076857
  28   H   :    0.000907272    0.001193975   -0.000733058
  29   H   :   -0.038314419   -0.052812303    0.024929345

Difference to translation invariance:
           :    0.0000000001   -0.0000000001   -0.0000000001

Norm of the cartesian gradient     ...    0.1229068964
RMS gradient                       ...    0.0131770024
MAX gradient                       ...    0.0528123034

-------
TIMINGS
-------

Total SCF gradient time            ...       56.881 sec

One electron gradient       ....       0.383 sec  (  0.7%)
Prescreening matrices       ....       0.092 sec  (  0.2%)
Two electron gradient       ....      36.208 sec  ( 63.7%)
XC gradient                 ....      18.935 sec  ( 33.3%)
------------------------------------------------------------------------------
                         ORCA GEOMETRY RELAXATION STEP
------------------------------------------------------------------------------

Reading the OPT-File                    .... done
Getting information on internals        .... done
Copying old internal coords+grads       .... done
Making the new internal coordinates     .... (new redundants).... done
Validating the new internal coordinates .... (new redundants).... done
Calculating the B-matrix                .... done
Calculating the G,G- and P matrices     .... done
Transforming gradient to internals      .... done
Projecting the internal gradient        .... done
Number of atoms                         ....  29
Number of internal coordinates          .... 172
Current Energy                          ....  -652.814288559 Eh
Current gradient norm                   ....     0.122906896 Eh/bohr
Maximum allowed component of the step   ....  0.300
Current trust radius                    ....  0.300
Evaluating the initial hessian          ....  (Almloef) done
Projecting the Hessian                  .... done
Forming the augmented Hessian           .... done
Diagonalizing the augmented Hessian     .... done
Last element of RFO vector              ....  0.860987445
Lowest eigenvalues of augmented Hessian:
 -0.147460671  0.007780184  0.032971485  0.033070465  0.036965019
Length of the computed step             ....  0.590747531
Warning: the length of the step is outside the trust region - taking restricted step instead
The input lambda is                     ....    -0.147461
   iter:   1  x=   -0.294747  g=    1.758360 f(x)=     0.258983
   iter:   2  x=   -0.443367  g=    0.664911 f(x)=     0.098819
   iter:   3  x=   -0.531941  g=    0.327908 f(x)=     0.029044
   iter:   4  x=   -0.551883  g=    0.231329 f(x)=     0.004613
   iter:   5  x=   -0.552650  g=    0.215049 f(x)=     0.000165
   iter:   6  x=   -0.552651  g=    0.214454 f(x)=     0.000000
   iter:   7  x=   -0.552651  g=    0.214453 f(x)=     0.000000
   iter:   8  x=   -0.552651  g=    0.214453 f(x)=    -0.000000
The output lambda is                    ....    -0.552651 (8 iterations)
The final length of the internal step   ....  0.300000000
Converting the step to cartesian space:
 Initial RMS(Int)=    0.0228747855
Transforming coordinates:
 Iter   0:  RMS(Cart)=    0.3395015230 RMS(Int)=    0.0241116397
 Iter   1:  RMS(Cart)=    0.0252689592 RMS(Int)=    0.4788427974
 Iter   2:  RMS(Cart)=    0.0062372538 RMS(Int)=    0.4789634393
 Iter   3:  RMS(Cart)=    0.0009299517 RMS(Int)=    0.0004436170
 Iter   4:  RMS(Cart)=    0.0001615888 RMS(Int)=    0.0000374944
 Iter   5:  RMS(Cart)=    0.0000275907 RMS(Int)=    0.0000125018
 Iter   6:  RMS(Cart)=    0.0000053372 RMS(Int)=    0.0000015394
 Iter   7:  RMS(Cart)=    0.0000009496 RMS(Int)=    0.0000004174
 Iter   8:  RMS(Cart)=    0.0000001601 RMS(Int)=    0.0000000507
 Iter   9:  RMS(Cart)=    0.0000000288 RMS(Int)=    0.0000000120
Imposing constraints:
 Iter   0:  RMS(Cart)=    0.0002802754 RMS(Int)=    0.0001974442
[...]
  29   2.0000      -0.479628       -13.0513 
  30   2.0000      -0.470336       -12.7985 
  31   2.0000      -0.455862       -12.4046 
  32   2.0000      -0.454288       -12.3618 
  33   2.0000      -0.430123       -11.7042 
  34   2.0000      -0.417726       -11.3669 
  35   2.0000      -0.413834       -11.2610 
  36   2.0000      -0.408082       -11.1045 
  37   2.0000      -0.386064       -10.5053 
  38   2.0000      -0.377007       -10.2589 
  39   2.0000      -0.365130        -9.9357 
  40   2.0000      -0.359910        -9.7936 
  41   2.0000      -0.353899        -9.6301 
  42   2.0000      -0.353751        -9.6260 
  43   2.0000      -0.337336        -9.1794 
  44   2.0000      -0.323043        -8.7904 
  45   2.0000      -0.307584        -8.3698 
  46   2.0000      -0.299665        -8.1543 
  47   2.0000      -0.272724        -7.4212 
  48   2.0000      -0.266805        -7.2601 
  49   2.0000      -0.259171        -7.0524 
  50   2.0000      -0.237032        -6.4500 
  51   0.0000       0.065380         1.7791 
  52   0.0000       0.072084         1.9615 
  53   0.0000       0.093246         2.5373 
  54   0.0000       0.098193         2.6720 
  55   0.0000       0.108274         2.9463 
  56   0.0000       0.114617         3.1189 
  57   0.0000       0.119999         3.2653 
  58   0.0000       0.130423         3.5490 
  59   0.0000       0.137764         3.7488 
  60   0.0000       0.146439         3.9848 
  61   0.0000       0.147497         4.0136 
  62   0.0000       0.154696         4.2095 
  63   0.0000       0.159759         4.3473 
  64   0.0000       0.165222         4.4959 
  65   0.0000       0.176665         4.8073 
  66   0.0000       0.179907         4.8955 
  67   0.0000       0.186950         5.0872 
  68   0.0000       0.198138         5.3916 
  69   0.0000       0.212766         5.7896 
  70   0.0000       0.214796         5.8449 
  71   0.0000       0.225983         6.1493 
  72   0.0000       0.233066         6.3420 
  73   0.0000       0.239571         6.5191 
  74   0.0000       0.255941         6.9645 
  75   0.0000       0.261051         7.1036 
  76   0.0000       0.267222         7.2715 
  77   0.0000       0.282646         7.6912 
  78   0.0000       0.289390         7.8747 
  79   0.0000       0.298487         8.1222 
  80   0.0000       0.317518         8.6401 
  81   0.0000       0.517142        14.0722 
  82   0.0000       0.529227        14.4010 
  83   0.0000       0.542268        14.7559 
  84   0.0000       0.549709        14.9583 
  85   0.0000       0.556221        15.1355 
  86   0.0000       0.568421        15.4675 
  87   0.0000       0.581564        15.8252 
  88   0.0000       0.589379        16.0378 
  89   0.0000       0.598494        16.2858 
  90   0.0000       0.600243        16.3334 
  91   0.0000       0.610615        16.6157 
  92   0.0000       0.624731        16.9998 
  93   0.0000       0.637520        17.3478 
  94   0.0000       0.641561        17.4578 
  95   0.0000       0.649290        17.6681 
  96   0.0000       0.654995        17.8233 
  97   0.0000       0.673968        18.3396 
  98   0.0000       0.699954        19.0467 
  99   0.0000       0.734719        19.9927 
 100   0.0000       0.750577        20.4242 
 101   0.0000       0.776410        21.1272 
 102   0.0000       0.799767        21.7628 
 103   0.0000       0.816666        22.2226 
 104   0.0000       0.830490        22.5988 
 105   0.0000       0.842011        22.9123 
 106   0.0000       0.853650        23.2290 
 107   0.0000       0.858581        23.3632 
 108   0.0000       0.870158        23.6782 
 109   0.0000       0.880121        23.9493 
 110   0.0000       0.883846        24.0507 
 111   0.0000       0.901027        24.5182 
 112   0.0000       0.903233        24.5782 
 113   0.0000       0.913846        24.8670 
 114   0.0000       0.925553        25.1856 
 115   0.0000       0.931183        25.3388 
 116   0.0000       0.932784        25.3823 
 117   0.0000       0.945562        25.7300 
 118   0.0000       0.959466        26.1084 
 119   0.0000       0.975168        26.5357 
 120   0.0000       0.979084        26.6422 
 121   0.0000       0.982933        26.7470 
 122   0.0000       1.006002        27.3747 
 123   0.0000       1.031737        28.0750 
 124   0.0000       1.048214        28.5234 
 125   0.0000       1.084400        29.5080 
 126   0.0000       1.091874        29.7114 
 127   0.0000       1.114876        30.3373 
 128   0.0000       1.148218        31.2446 
 129   0.0000       1.166633        31.7457 
 130   0.0000       1.187541        32.3146 
 131   0.0000       1.214850        33.0578 
 132   0.0000       1.276736        34.7418 
 133   0.0000       1.303295        35.4645 
 134   0.0000       1.334703        36.3191 
 135   0.0000       1.362363        37.0718 
 136   0.0000       1.384543        37.6753 
 137   0.0000       1.414542        38.4917 
 138   0.0000       1.452599        39.5272 
 139   0.0000       1.459954        39.7274 
 140   0.0000       1.541943        41.9584 
 141   0.0000       1.611103        43.8403 
 142   0.0000       1.662793        45.2469 
 143   0.0000       1.686567        45.8938 
 144   0.0000       1.807620        49.1878 
 145   0.0000       1.883428        51.2507 
 146   0.0000       1.926692        52.4280 
 147   0.0000       2.077248        56.5248 
 148   0.0000       2.170957        59.0747 

                    ********************************
                    * MULLIKEN POPULATION ANALYSIS *
                    ********************************

-----------------------
MULLIKEN ATOMIC CHARGES
-----------------------
   0 C :    0.296980
   1 C :   -0.258299
   2 C :   -0.300030
   3 C :   -0.013005
   4 O :   -0.526154
   5 H :    0.155231
   6 H :    0.146045
   7 H :    0.165387
   8 H :    0.145481
   9 H :    0.161432
  10 H :    0.145628
  11 H :    0.151621
  12 C :    0.010569
  13 H :    0.127036
  14 H :    0.167983
  15 O :   -0.538152
  16 C :    0.034670
  17 C :    0.090869
  18 C :   -0.296663
  19 C :   -0.030726
  20 O :   -0.529377
  21 H :    0.158468
  22 O :   -0.608689
  23 H :    0.179702
  24 H :    0.156059
  25 H :    0.163151
  26 H :    0.142136
  27 H :    0.141537
  28 H :    0.361111
Sum of atomic charges:   -0.0000000

--------------------------------
MULLIKEN REDUCED ORBITAL CHARGES
--------------------------------
  0 C s       :     3.191351  s :     3.191351
      pz      :     0.812667  p :     2.511669
      px      :     0.677321
      py      :     1.021681
  1 C s       :     3.306074  s :     3.306074
      pz      :     0.969882  p :     2.952225
      px      :     1.058889
      py      :     0.923454
  2 C s       :     3.315341  s :     3.315341
      pz      :     0.916899  p :     2.984689
      px      :     1.078177
      py      :     0.989613
  3 C s       :     3.266370  s :     3.266370
      pz      :     0.928794  p :     2.746635
      px      :     1.073405
      py      :     0.744435
  4 O s       :     3.942961  s :     3.942961
      pz      :     1.341937  p :     4.583193
      px      :     1.717412
      py      :     1.523844
  5 H s       :     0.844769  s :     0.844769
  6 H s       :     0.853955  s :     0.853955
  7 H s       :     0.834613  s :     0.834613
  8 H s       :     0.854519  s :     0.854519
  9 H s       :     0.838568  s :     0.838568
 10 H s       :     0.854372  s :     0.854372
 11 H s       :     0.848379  s :     0.848379
 12 C s       :     3.256672  s :     3.256672
      pz      :     0.905487  p :     2.732758
      px      :     0.986125
      py      :     0.841146
 13 H s       :     0.872964  s :     0.872964
 14 H s       :     0.832017  s :     0.832017
 15 O s       :     3.913755  s :     3.913755
      pz      :     1.665018  p :     4.624398
      px      :     1.279500
      py      :     1.679879
 16 C s       :     3.281663  s :     3.281663
      pz      :     0.891178  p :     2.683667
      px      :     0.881270
      py      :     0.911219
 17 C s       :     3.265790  s :     3.265790
      pz      :     0.924142  p :     2.643341
      px      :     0.997881
      py      :     0.721318
 18 C s       :     3.316808  s :     3.316808
      pz      :     0.933985  p :     2.979855
      px      :     0.947869
      py      :     1.098001
 19 C s       :     3.269432  s :     3.269432
      pz      :     0.850702  p :     2.761294
      px      :     0.848707
      py      :     1.061886
 20 O s       :     3.946723  s :     3.946723
      pz      :     1.272250  p :     4.582655
      px      :     1.557868
      py      :     1.752537
 21 H s       :     0.841532  s :     0.841532
 22 O s       :     3.920763  s :     3.920763
      pz      :     1.788904  p :     4.687926
      px      :     1.547441
      py      :     1.351580
 23 H s       :     0.820298  s :     0.820298
 24 H s       :     0.843941  s :     0.843941
 25 H s       :     0.836849  s :     0.836849
 26 H s       :     0.857864  s :     0.857864
 27 H s       :     0.858463  s :     0.858463
 28 H s       :     0.638889  s :     0.638889


                     *******************************
                     * LOEWDIN POPULATION ANALYSIS *
                     *******************************

----------------------
LOEWDIN ATOMIC CHARGES
----------------------
   0 C :    0.175227
   1 C :   -0.213701
   2 C :   -0.215854
   3 C :   -0.030618
   4 O :   -0.330126
   5 H :    0.099177
   6 H :    0.114316
   7 H :    0.128694
   8 H :    0.116358
   9 H :    0.118874
  10 H :    0.102768
  11 H :    0.107136
  12 C :   -0.035511
  13 H :    0.093645
  14 H :    0.124294
  15 O :   -0.335531
  16 C :    0.005452
  17 C :    0.036507
  18 C :   -0.239253
  19 C :   -0.039868
  20 O :   -0.331107
  21 H :    0.112754
  22 O :   -0.419420
  23 H :    0.128230
  24 H :    0.123618
  25 H :    0.122590
  26 H :    0.101440
  27 H :    0.099927
  28 H :    0.279981

-------------------------------
LOEWDIN REDUCED ORBITAL CHARGES
-------------------------------
  0 C s       :     2.951919  s :     2.951919
      pz      :     0.932282  p :     2.872854
      px      :     0.844486
      py      :     1.096086
  1 C s       :     2.976857  s :     2.976857
      pz      :     1.071763  p :     3.236844
      px      :     1.119117
      py      :     1.045964
  2 C s       :     2.970516  s :     2.970516
      pz      :     1.037263  p :     3.245338
      px      :     1.129730
      py      :     1.078346
  3 C s       :     2.986559  s :     2.986559
      pz      :     1.028220  p :     3.044059
      px      :     1.131835
      py      :     0.884004
  4 O s       :     3.602331  s :     3.602331
      pz      :     1.405821  p :     4.727796
      px      :     1.754546
      py      :     1.567428
  5 H s       :     0.900823  s :     0.900823
  6 H s       :     0.885684  s :     0.885684
  7 H s       :     0.871306  s :     0.871306
  8 H s       :     0.883642  s :     0.883642
  9 H s       :     0.881126  s :     0.881126
 10 H s       :     0.897232  s :     0.897232
 11 H s       :     0.892864  s :     0.892864
 12 C s       :     2.980392  s :     2.980392
      pz      :     1.007198  p :     3.055118
      px      :     1.057119
      py      :     0.990801
 13 H s       :     0.906355  s :     0.906355
 14 H s       :     0.875706  s :     0.875706
 15 O s       :     3.568887  s :     3.568887
      pz      :     1.704689  p :     4.766643
      px      :     1.359727
      py      :     1.702227
 16 C s       :     2.973506  s :     2.973506
      pz      :     0.979015  p :     3.021042
      px      :     1.004122
      py      :     1.037906
 17 C s       :     2.955319  s :     2.955319
      pz      :     1.034869  p :     3.008174
      px      :     1.092253
      py      :     0.881053
 18 C s       :     2.983392  s :     2.983392
      pz      :     1.053796  p :     3.255860
      px      :     1.062745
      py      :     1.139319
 19 C s       :     2.984452  s :     2.984452
      pz      :     0.960903  p :     3.055417
      px      :     0.974166
      py      :     1.120347
 20 O s       :     3.605010  s :     3.605010
      pz      :     1.340682  p :     4.726098
      px      :     1.607730
      py      :     1.777685
 21 H s       :     0.887246  s :     0.887246
 22 O s       :     3.615737  s :     3.615737
      pz      :     1.814466  p :     4.803683
      px      :     1.582040
      py      :     1.407177
 23 H s       :     0.871770  s :     0.871770
 24 H s       :     0.876382  s :     0.876382
 25 H s       :     0.877410  s :     0.877410
 26 H s       :     0.898560  s :     0.898560
 27 H s       :     0.900073  s :     0.900073
 28 H s       :     0.720019  s :     0.720019


                      *****************************
                      * MAYER POPULATION ANALYSIS *
                      *****************************

  NA   - Mulliken gross atomic population
  ZA   - Total nuclear charge
  QA   - Mulliken gross atomic charge
  VA   - Mayer's total valence
  BVA  - Mayer's bonded valence
  FA   - Mayer's free valence

  ATOM       NA         ZA         QA         VA         BVA        FA
  0 C      5.7030     6.0000     0.2970     3.6412     3.6412     0.0000
  1 C      6.2583     6.0000    -0.2583     3.7246     3.7246    -0.0000
  2 C      6.3000     6.0000    -0.3000     3.7665     3.7665     0.0000
  3 C      6.0130     6.0000    -0.0130     3.6519     3.6519    -0.0000
  4 O      8.5262     8.0000    -0.5262     1.7772     1.7772    -0.0000
  5 H      0.8448     1.0000     0.1552     0.9253     0.9253     0.0000
  6 H      0.8540     1.0000     0.1460     0.9336     0.9336     0.0000
  7 H      0.8346     1.0000     0.1654     0.9380     0.9380     0.0000
  8 H      0.8545     1.0000     0.1455     0.9365     0.9365    -0.0000
  9 H      0.8386     1.0000     0.1614     0.9345     0.9345    -0.0000
 10 H      0.8544     1.0000     0.1456     0.9270     0.9270    -0.0000
 11 H      0.8484     1.0000     0.1516     0.9281     0.9281    -0.0000
 12 C      5.9894     6.0000     0.0106     3.6437     3.6437     0.0000
 13 H      0.8730     1.0000     0.1270     0.9361     0.9361     0.0000
 14 H      0.8320     1.0000     0.1680     0.9309     0.9309     0.0000
 15 O      8.5382     8.0000    -0.5382     1.7303     1.7303    -0.0000
 16 C      5.9653     6.0000     0.0347     3.5743     3.5743    -0.0000
 17 C      5.9091     6.0000     0.0909     3.6284     3.6284     0.0000
 18 C      6.2967     6.0000    -0.2967     3.6923     3.6923    -0.0000
 19 C      6.0307     6.0000    -0.0307     3.6622     3.6622    -0.0000
 20 O      8.5294     8.0000    -0.5294     1.7542     1.7542    -0.0000
 21 H      0.8415     1.0000     0.1585     0.9329     0.9329     0.0000
 22 O      8.6087     8.0000    -0.6087     1.7339     1.7339     0.0000
 23 H      0.8203     1.0000     0.1797     0.9389     0.9389     0.0000
 24 H      0.8439     1.0000     0.1561     0.9404     0.9404     0.0000
 25 H      0.8368     1.0000     0.1632     0.9416     0.9416    -0.0000
 26 H      0.8579     1.0000     0.1421     0.9284     0.9284     0.0000
 27 H      0.8585     1.0000     0.1415     0.9295     0.9295     0.0000
 28 H      0.6389     1.0000     0.3611     0.8350     0.8350     0.0000

  Mayer bond orders larger than 0.100000
B(  0-C ,  1-C ) :   0.9444 B(  0-C ,  4-O ) :   0.8761 B(  0-C ,  5-H ) :   0.9186 
B(  0-C , 15-O ) :   0.8558 B(  1-C ,  2-C ) :   0.9533 B(  1-C ,  6-H ) :   0.9377 
B(  1-C ,  7-H ) :   0.9353 B(  2-C ,  3-C ) :   0.9560 B(  2-C ,  8-H ) :   0.9445 
B(  2-C ,  9-H ) :   0.9441 B(  3-C ,  4-O ) :   0.8240 B(  3-C , 10-H ) :   0.9339 
B(  3-C , 11-H ) :   0.9399 B( 12-C , 13-H ) :   0.9260 B( 12-C , 14-H ) :   0.9349 
B( 12-C , 15-O ) :   0.8339 B( 12-C , 16-C ) :   0.8801 B( 16-C , 17-C ) :   0.9153 
B( 16-C , 20-O ) :   0.8256 B( 16-C , 21-H ) :   0.9256 B( 17-C , 18-C ) :   0.9159 
B( 17-C , 22-O ) :   0.8721 B( 17-C , 23-H ) :   0.9150 B( 18-C , 19-C ) :   0.9396 
B( 18-C , 24-H ) :   0.9391 B( 18-C , 25-H ) :   0.9251 B( 19-C , 20-O ) :   0.8385 
B( 19-C , 26-H ) :   0.9370 B( 19-C , 27-H ) :   0.9387 B( 22-O , 28-H ) :   0.7961 


-------
TIMINGS
-------

Total SCF time: 0 days 0 hours 1 min 47 sec 

Total time                  ....     107.699 sec
Sum of individual times     ....      97.767 sec  ( 90.8%)

Fock matrix formation       ....      92.451 sec  ( 85.8%)
  XC integration            ....      32.637 sec  ( 35.3% of F)
    Basis function eval.    ....       2.109 sec  (  6.5% of XC)
    Density eval.           ....       0.975 sec  (  3.0% of XC)
    XC-Functional eval.     ....       0.444 sec  (  1.4% of XC)
    XC-Potential eval.      ....       1.255 sec  (  3.8% of XC)
Diagonalization             ....       0.013 sec  (  0.0%)
Density matrix formation    ....       0.005 sec  (  0.0%)
Population analysis         ....       0.011 sec  (  0.0%)
Initial guess               ....       0.008 sec  (  0.0%)
Orbital Transformation      ....       0.000 sec  (  0.0%)
Orbital Orthonormalization  ....       0.005 sec  (  0.0%)
DIIS solution               ....       0.001 sec  (  0.0%)
SOSCF solution              ....       0.130 sec  (  0.1%)
Grid generation             ....       5.148 sec  (  4.8%)

-------------------------   --------------------
FINAL SINGLE POINT ENERGY      -652.862430288366
-------------------------   --------------------

                                *** OPTIMIZATION RUN DONE ***

                            ***************************************
                            *     ORCA property calculations      *
                            ***************************************

                                    ---------------------
                                    Active property flags
                                    ---------------------
   (+) Dipole Moment


------------------------------------------------------------------------------
                       ORCA ELECTRIC PROPERTIES CALCULATION
------------------------------------------------------------------------------

Dipole Moment Calculation                       ... on
Quadrupole Moment Calculation                   ... off
Polarizability Calculation                      ... off
GBWName                                         ... project_8050/ensemble_330_300.gbw
Electron density file                           ... project_8050/ensemble_330_300.scfp
The origin for moment calculation is the CENTER OF MASS  = (-40.970875, 47.306860 89.595607)

-------------
DIPOLE MOMENT
-------------
                                X             Y             Z
Electronic contribution:     -2.73762      -4.04439      -2.93682
Nuclear contribution   :      3.25176       5.05711       3.64831
                        -----------------------------------------
Total Dipole Moment    :      0.51414       1.01273       0.71149
                        -----------------------------------------
Magnitude (a.u.)       :      1.34022
Magnitude (Debye)      :      3.40656



--------------------
Rotational spectrum 
--------------------
 
Rotational constants in cm-1:     0.051065     0.015657     0.015360 
Rotational constants in MHz :  1530.879753   469.370939   460.479845 

 Dipole components along the rotational axes: 
x,y,z [a.u.] :     0.969112    -0.593649     0.710339 
x,y,z [Debye]:     2.463286    -1.508936     1.805539 

 

Timings for individual modules:

Sum of individual times         ...     1220.587 sec (=  20.343 min)
GTO integral calculation        ...        3.638 sec (=   0.061 min)   0.3 %
SCF iterations                  ...      942.518 sec (=  15.709 min)  77.2 %
SCF Gradient evaluation         ...      272.264 sec (=   4.538 min)  22.3 %
Geometry relaxation             ...        2.167 sec (=   0.036 min)   0.2 %
                             ****ORCA TERMINATED NORMALLY****
TOTAL RUN TIME: 0 days 0 hours 20 minutes 39 seconds 737 msec
