
                                 *****************
                                 * O   R   C   A *
                                 *****************

           --- An Ab Initio, DFT and Semiempirical electronic structure package ---

                  #######################################################
                  #                        -***-                        #
                  #          Department of theory and spectroscopy      #
                  #               Directorship: Frank Neese             #
                  #        Max Planck Institute fuer Kohlenforschung    #
                  #                Kaiser Wilhelm Platz 1               #
                  #                 D-45470 Muelheim/Ruhr               #
                  #                      Germany                        #
                  #                                                     #
                  #                  All rights reserved                #
                  #                        -***-                        #
                  #######################################################


                         Program Version 4.2.0 -  RELEASE  -


 With contributions from (in alphabetic order):
   Daniel Aravena         : Magnetic Suceptibility
   Michael Atanasov       : Ab Initio Ligand Field Theory (pilot matlab implementation)
   Alexander A. Auer      : GIAO ZORA, VPT2
   Ute Becker             : Parallelization
   Giovanni Bistoni       : ED, misc. LED, open-shell LED, HFLED
   Martin Brehm           : Molecular dynamics
   Dmytro Bykov           : SCF Hessian
   Vijay G. Chilkuri      : MRCI spin determinant printing, contributions to CSF-ICE
   Dipayan Datta          : RHF DLPNO-CCSD density
   Achintya Kumar Dutta   : EOM-CC, STEOM-CC
   Dmitry Ganyushin       : Spin-Orbit,Spin-Spin,Magnetic field MRCI
   Miquel Garcia          : C-PCM Hessian, Gaussian charge scheme
   Yang Guo               : DLPNO-NEVPT2, CIM, IAO-localization
   Andreas Hansen         : Spin unrestricted coupled pair/coupled cluster methods
   Benjamin Helmich-Paris : CASSCF linear response (MC-RPA)
   Lee Huntington         : MR-EOM, pCC
   Robert Izsak           : Overlap fitted RIJCOSX, COSX-SCS-MP3, EOM
   Christian Kollmar      : KDIIS, OOCD, Brueckner-CCSD(T), CCSD density
   Simone Kossmann        : Meta GGA functionals, TD-DFT gradient, OOMP2, MP2 Hessian
   Martin Krupicka        : AUTO-CI
   Lucas Lang             : DCDCAS
   Dagmar Lenk            : GEPOL surface, SMD
   Dimitrios Liakos       : Extrapolation schemes; Compound Job, initial MDCI parallelization
   Dimitrios Manganas     : Further ROCIS development; embedding schemes
   Dimitrios Pantazis     : SARC Basis sets
   Taras Petrenko         : DFT Hessian,TD-DFT gradient, ASA, ECA, R-Raman, ABS, FL, XAS/XES, NRVS
   Peter Pinski           : DLPNO-MP2, DLPNO-MP2 Gradient
   Christoph Reimann      : Effective Core Potentials
   Marius Retegan         : Local ZFS, SOC
   Christoph Riplinger    : Optimizer, TS searches, QM/MM, DLPNO-CCSD(T), (RO)-DLPNO pert. Triples
   Tobias Risthaus        : Range-separated hybrids, TD-DFT gradient, RPA, STAB
   Michael Roemelt        : Original ROCIS implementation
   Masaaki Saitow         : Open-shell DLPNO-CCSD energy and density
   Barbara Sandhoefer     : DKH picture change effects
   Avijit Sen             : IP-ROCIS
   Kantharuban Sivalingam : CASSCF convergence, NEVPT2, FIC-MRCI
   Bernardo de Souza      : ESD, SOC TD-DFT
   Georgi Stoychev        : AutoAux, RI-MP2 NMR
   Willem Van den Heuvel  : Paramagnetic NMR
   Boris Wezisla          : Elementary symmetry handling
   Frank Wennmohs         : Technical directorship


 We gratefully acknowledge several colleagues who have allowed us to
 interface, adapt or use parts of their codes:
   Stefan Grimme, W. Hujo, H. Kruse,             : VdW corrections, initial TS optimization,
                  C. Bannwarth                     DFT functionals, gCP, sTDA/sTD-DF
   Ed Valeev, F. Pavosevic, A. Kumar             : LibInt (2-el integral package), F12 methods
   Garnet Chan, S. Sharma, J. Yang, R. Olivares  : DMRG
   Ulf Ekstrom                                   : XCFun DFT Library
   Mihaly Kallay                                 : mrcc  (arbitrary order and MRCC methods)
   Andreas Klamt, Michael Diedenhofen            : otool_cosmo (COSMO solvation model)
   Jiri Pittner, Ondrej Demel                    : Mk-CCSD
   Frank Weinhold                                : gennbo (NPA and NBO analysis)
   Christopher J. Cramer and Donald G. Truhlar   : smd solvation model
   Lars Goerigk                                  : TD-DFT with DH, B97 family of functionals
   V. Asgeirsson, H. Jonsson                     : NEB implementation
   FAccTs GmbH                                   : IRC, NEB, NEB-TS, Multilevel, MM, QM/MM, CI optimization
   S Lehtola, MJT Oliveira, MAL Marques          : LibXC Library


 Your calculation uses the libint2 library for the computation of 2-el integrals
 For citations please refer to: http://libint.valeyev.net

 Your ORCA version has been built with support for libXC version: 4.2.3
 For citations please refer to: https://tddft.org/programs/libxc/

 This ORCA versions uses:
   CBLAS   interface :  Fast vector & matrix operations
   LAPACKE interface :  Fast linear algebra routines
   SCALAPACK package :  Parallel linear algebra routines


----- Orbital basis set information -----
Your calculation utilizes the basis: 6-31G
   H-He, Li-Ne : W. J. Hehre, R. Ditchfield and J.A. Pople, J. Chem. Phys. 56, 2257 (1972).
                 Note: He and Ne are unpublished basis sets taken from the Gaussian program.
                 Note: Li and B from J. D. Dill and J. A. Pople, J. Chem. Phys. 62, 2921 (1975).
   Na - Ar     : M. M. Francl, W. J. Pietro, W. J. Hehre, J. S. Binkley, M. S. Gordon, 
                 D. J. DeFrees and J. A. Pople, J. Chem. Phys. 77, 3654 (1982).
   K - Zn      : V. A. Rassolov, J. A. Pople, M. A. Ratner, and T. L. Windus, J. Chem. Phys. 109, 1223 (1998).

================================================================================
                                        WARNINGS
                       Please study these warnings very carefully!
================================================================================


WARNING: Geometry Optimization
  ===> : Switching off AutoStart
         For restart on a previous wavefunction, please use MOREAD

INFO   : the flag for use of LIBINT has been found!

================================================================================
                                       INPUT FILE
================================================================================
NAME = project_8050/ensemble_255_90.inp
|  1> # Test redundant internal optimization
|  2> #
|  3> ! RKS B3LYP  Opt TightSCF SmallPrint
|  4> 
|  5> %basis
|  6>         Basis "6-31G"
|  7> end
|  8> 
|  9> %geom
| 10> Constraints
| 11> { D 4  0  15  12  255.0   C } # D for Dihedral angle
| 12> { D 0  15  12  16  90.0   C } # D for Dihedral angle
| 13> { D 0  4  3  2   C } # D for Dihedral angle
| 14> { D 4  3  2  1   C } # D for Dihedral angle
| 15> { D 3  2  1  0   C } # D for Dihedral angle
| 16> { D 2  1  0  4   C } # D for Dihedral angle
| 17> { D 1  0  4  3   C } # D for Dihedral angle
| 18> { D 16  20  19  18   C } # D for Dihedral angle
| 19> { D 20  19  18  17   C } # D for Dihedral angle
| 20> { D 19  18  17  16   C } # D for Dihedral angle
| 21> { D 18  17  16  20   C } # D for Dihedral angle
| 22> { D 17  16  20  19   C } # D for Dihedral angle
| 23> { D 15  12  16  20   C } # D for Dihedral angle
| 24> end
| 25> end
| 26> 
| 27> 
| 28> #%pal 
| 29> #nprocs 8
| 30> #end
| 31> 
| 32> * xyz 0 1
| 33> C  -21.048   26.222   46.251
| 34> C  -20.361   27.558   45.944
| 35> C  -20.329   28.222   47.341
| 36> C  -20.110   27.022   48.296
| 37> O  -20.473   25.807   47.535
| 38> H  -20.833   25.428   45.533
| 39> H  -19.344   27.382   45.576
| 40> H  -20.898   28.157   45.201
| 41> H  -19.543   28.978   47.434
| 42> H  -21.289   28.710   47.548
| 43> H  -20.733   27.082   49.195
| 44> H  -19.064   26.913   48.597
| 45> C  -23.431   25.260   45.734
| 46> H  -24.384   25.673   45.381
| 47> H  -22.905   24.828   44.872
| 48> O  -22.586   26.394   46.375
| 49> C  -23.738   24.104   46.727
| 50> C  -24.622   24.585   47.883
| 51> C  -26.022   24.597   47.225
| 52> C  -25.967   23.386   46.260
| 53> O  -24.537   23.064   46.071
| 54> H  -22.800   23.640   47.036
| 55> O  -24.573   23.562   49.051
| 56> H  -24.326   25.565   48.273
| 57> H  -26.834   24.515   47.953
| 58> H  -26.166   25.530   46.666
| 59> H  -26.418   23.604   45.287
| 60> H  -26.445   22.497   46.680
| 61> H  -24.867   22.570   48.684
| 62> *
| 63> 
| 64>                          ****END OF INPUT****
================================================================================

                       *****************************
                       * Geometry Optimization Run *
                       *****************************

Geometry optimization settings:
Update method            Update   .... BFGS
Choice of coordinates    CoordSys .... Z-matrix Internals
Initial Hessian          InHess   .... Almoef's Model

Convergence Tolerances:
Energy Change            TolE     ....  5.0000e-06 Eh
Max. Gradient            TolMAXG  ....  3.0000e-04 Eh/bohr
RMS Gradient             TolRMSG  ....  1.0000e-04 Eh/bohr
Max. Displacement        TolMAXD  ....  4.0000e-03 bohr
RMS Displacement         TolRMSD  ....  2.0000e-03 bohr
Strict Convergence                ....  False
------------------------------------------------------------------------------
                        ORCA OPTIMIZATION COORDINATE SETUP
------------------------------------------------------------------------------

The optimization will be done in new redundant internal coordinates
Making redundant internal coordinates   ...  (new redundants) done
Evaluating the initial hessian          ...  (Almloef) done
Evaluating the coordinates              ...  done
Calculating the B-matrix                .... done
Calculating the G-matrix                .... done
Diagonalizing the G-matrix              .... done
Imposing constraints:
 Iter   0:  RMS(Cart)=    0.0001133831 RMS(Int)=    0.0000439223
 Iter   1:  RMS(Cart)=    0.0000549156 RMS(Int)=    0.0000238339
 Iter   2:  RMS(Cart)=    0.0000279781 RMS(Int)=    0.0000142078
 Iter   3:  RMS(Cart)=    0.0000152507 RMS(Int)=    0.0000092790
 Iter   4:  RMS(Cart)=    0.0000089525 RMS(Int)=    0.0000065529
 Iter   5:  RMS(Cart)=    0.0000056092 RMS(Int)=    0.0000049583
 Iter   6:  RMS(Cart)=    0.0000036858 RMS(Int)=    0.0000040031
 Iter   7:  RMS(Cart)=    0.0000024995 RMS(Int)=    0.0000034277
 Iter   8:  RMS(Cart)=    0.0000017327 RMS(Int)=    0.0000030767
 Iter   9:  RMS(Cart)=    0.0000012248 RMS(Int)=    0.0000028540
 Iter  10:  RMS(Cart)=    0.0000008868 RMS(Int)=    0.0000027023
 Iter  11:  RMS(Cart)=    0.0000006644 RMS(Int)=    0.0000025894
 Iter  12:  RMS(Cart)=    0.0000005220 RMS(Int)=    0.0000024976
 Iter  13:  RMS(Cart)=    0.0000004339 RMS(Int)=    0.0000024177
 Iter  14:  RMS(Cart)=    0.0000003807 RMS(Int)=    0.0000023450
 Iter  15:  RMS(Cart)=    0.0000003486 RMS(Int)=    0.0000022769
 Iter  16:  RMS(Cart)=    0.0000003282 RMS(Int)=    0.0000022122
 Iter  17:  RMS(Cart)=    0.0000003139 RMS(Int)=    0.0000021500
 Iter  18:  RMS(Cart)=    0.0000003026 RMS(Int)=    0.0000020901
 Iter  19:  RMS(Cart)=    0.0000002932 RMS(Int)=    0.0000020323
 Iter  20:  RMS(Cart)=    0.0000002846 RMS(Int)=    0.0000019762
 Iter  21:  RMS(Cart)=    0.0000002765 RMS(Int)=    0.0000019220
 Iter  22:  RMS(Cart)=    0.0000002685 RMS(Int)=    0.0000018695
 Iter  23:  RMS(Cart)=    0.0000002605 RMS(Int)=    0.0000018185
 Iter  24:  RMS(Cart)=    0.0000002535 RMS(Int)=    0.0000017692
 Iter  25:  RMS(Cart)=    0.0000002464 RMS(Int)=    0.0000017213
 Iter  26:  RMS(Cart)=    0.0000002392 RMS(Int)=    0.0000016749
 Iter  27:  RMS(Cart)=    0.0000002321 RMS(Int)=    0.0000016300
 Iter  28:  RMS(Cart)=    0.0000002256 RMS(Int)=    0.0000015864
 Iter  29:  RMS(Cart)=    0.0000002192 RMS(Int)=    0.0000015441
 Iter  30:  RMS(Cart)=    0.0000002128 RMS(Int)=    0.0000015031
 Iter  31:  RMS(Cart)=    0.0000002068 RMS(Int)=    0.0000014633
 Iter  32:  RMS(Cart)=    0.0000002007 RMS(Int)=    0.0000014247
 Iter  33:  RMS(Cart)=    0.0000001951 RMS(Int)=    0.0000013873
 Iter  34:  RMS(Cart)=    0.0000001898 RMS(Int)=    0.0000013509
 Iter  35:  RMS(Cart)=    0.0000001846 RMS(Int)=    0.0000013157
 Iter  36:  RMS(Cart)=    0.0000001790 RMS(Int)=    0.0000012815
 Iter  37:  RMS(Cart)=    0.0000001741 RMS(Int)=    0.0000012484
 Iter  38:  RMS(Cart)=    0.0000001688 RMS(Int)=    0.0000012162
 Iter  39:  RMS(Cart)=    0.0000001646 RMS(Int)=    0.0000011849
 Iter  40:  RMS(Cart)=    0.0000001599 RMS(Int)=    0.0000011546
 Iter  41:  RMS(Cart)=    0.0000001554 RMS(Int)=    0.0000011252
 Iter  42:  RMS(Cart)=    0.0000001510 RMS(Int)=    0.0000010966
 Iter  43:  RMS(Cart)=    0.0000001471 RMS(Int)=    0.0000010689
 Iter  44:  RMS(Cart)=    0.0000001423 RMS(Int)=    0.0000010420
 Iter  45:  RMS(Cart)=    0.0000001386 RMS(Int)=    0.0000010158
 Iter  46:  RMS(Cart)=    0.0000001355 RMS(Int)=    0.0000009904
 Iter  47:  RMS(Cart)=    0.0000001322 RMS(Int)=    0.0000009658
 Iter  48:  RMS(Cart)=    0.0000001286 RMS(Int)=    0.0000009418
 Iter  49:  RMS(Cart)=    0.0000001245 RMS(Int)=    0.0000009186
 Iter  50:  RMS(Cart)=    0.0000001210 RMS(Int)=    0.0000008960
 Iter  51:  RMS(Cart)=    0.0000001173 RMS(Int)=    0.0000008741
 Iter  52:  RMS(Cart)=    0.0000001145 RMS(Int)=    0.0000008528
 Iter  53:  RMS(Cart)=    0.0000001113 RMS(Int)=    0.0000008321
 Iter  54:  RMS(Cart)=    0.0000001095 RMS(Int)=    0.0000008120
 Iter  55:  RMS(Cart)=    0.0000001053 RMS(Int)=    0.0000007924
 Iter  56:  RMS(Cart)=    0.0000001024 RMS(Int)=    0.0000007734
 Iter  57:  RMS(Cart)=    0.0000001001 RMS(Int)=    0.0000007550
 Iter  58:  RMS(Cart)=    0.0000000974 RMS(Int)=    0.0000007370
 Iter  59:  RMS(Cart)=    0.0000000943 RMS(Int)=    0.0000007196
 Iter  60:  RMS(Cart)=    0.0000000948 RMS(Int)=    0.0000007026
 Iter  61:  RMS(Cart)=    0.0000000897 RMS(Int)=    0.0000006862
 Iter  62:  RMS(Cart)=    0.0000000869 RMS(Int)=    0.0000006702
 Iter  63:  RMS(Cart)=    0.0000000850 RMS(Int)=    0.0000006546
 Iter  64:  RMS(Cart)=    0.0000000834 RMS(Int)=    0.0000006394
 Iter  65:  RMS(Cart)=    0.0000000805 RMS(Int)=    0.0000006247
 Iter  66:  RMS(Cart)=    0.0000000790 RMS(Int)=    0.0000006104
 Iter  67:  RMS(Cart)=    0.0000000770 RMS(Int)=    0.0000005965
 Iter  68:  RMS(Cart)=    0.0000000738 RMS(Int)=    0.0000005829
 Iter  69:  RMS(Cart)=    0.0000000748 RMS(Int)=    0.0000005698
 Iter  70:  RMS(Cart)=    0.0000000704 RMS(Int)=    0.0000005570
 Iter  71:  RMS(Cart)=    0.0000000692 RMS(Int)=    0.0000005445
 Iter  72:  RMS(Cart)=    0.0000000693 RMS(Int)=    0.0000005324
 Iter  73:  RMS(Cart)=    0.0000000650 RMS(Int)=    0.0000005206
 Iter  74:  RMS(Cart)=    0.0000000633 RMS(Int)=    0.0000005091
 Iter  75:  RMS(Cart)=    0.0000000641 RMS(Int)=    0.0000004979
 Iter  76:  RMS(Cart)=    0.0000000601 RMS(Int)=    0.0000004871
 Iter  77:  RMS(Cart)=    0.0000000591 RMS(Int)=    0.0000004765
 Iter  78:  RMS(Cart)=    0.0000000576 RMS(Int)=    0.0000004662
 Iter  79:  RMS(Cart)=    0.0000000561 RMS(Int)=    0.0000004562
 Iter  80:  RMS(Cart)=    0.0000000547 RMS(Int)=    0.0000004464
 Iter  81:  RMS(Cart)=    0.0000000533 RMS(Int)=    0.0000004369
 Iter  82:  RMS(Cart)=    0.0000000519 RMS(Int)=    0.0000004276
 Iter  83:  RMS(Cart)=    0.0000000524 RMS(Int)=    0.0000004186
 Iter  84:  RMS(Cart)=    0.0000000511 RMS(Int)=    0.0000004099
 Iter  85:  RMS(Cart)=    0.0000000481 RMS(Int)=    0.0000004013
 Iter  86:  RMS(Cart)=    0.0000000487 RMS(Int)=    0.0000003930
 Iter  87:  RMS(Cart)=    0.0000000475 RMS(Int)=    0.0000003849
 Iter  88:  RMS(Cart)=    0.0000000446 RMS(Int)=    0.0000003770
 Iter  89:  RMS(Cart)=    0.0000000452 RMS(Int)=    0.0000003693
 Iter  90:  RMS(Cart)=    0.0000000424 RMS(Int)=    0.0000003618
 Iter  91:  RMS(Cart)=    0.0000000413 RMS(Int)=    0.0000003545
 Iter  92:  RMS(Cart)=    0.0000000420 RMS(Int)=    0.0000003474
 Iter  93:  RMS(Cart)=    0.0000000393 RMS(Int)=    0.0000003404
 Iter  94:  RMS(Cart)=    0.0000000400 RMS(Int)=    0.0000003336
 Iter  95:  RMS(Cart)=    0.0000000391 RMS(Int)=    0.0000003270
 Iter  96:  RMS(Cart)=    0.0000000381 RMS(Int)=    0.0000003206
 Iter  97:  RMS(Cart)=    0.0000000356 RMS(Int)=    0.0000003144
 Iter  98:  RMS(Cart)=    0.0000000347 RMS(Int)=    0.0000003083
 Iter  99:  RMS(Cart)=    0.0000000339 RMS(Int)=    0.0000003023
 RMS(Cart) too big - taking linear step, building new B-matrix and trying again
Imposing constraints:
 Iter   0:  RMS(Cart)=    0.0000549140 RMS(Int)=    0.0000238338
 Iter   1:  RMS(Cart)=    0.0000279768 RMS(Int)=    0.0000142078
 Iter   2:  RMS(Cart)=    0.0000152498 RMS(Int)=    0.0000092790
 Iter   3:  RMS(Cart)=    0.0000089519 RMS(Int)=    0.0000065531
 Iter   4:  RMS(Cart)=    0.0000056088 RMS(Int)=    0.0000049584
 Iter   5:  RMS(Cart)=    0.0000036855 RMS(Int)=    0.0000040033
 Iter   6:  RMS(Cart)=    0.0000024993 RMS(Int)=    0.0000034280
 Iter   7:  RMS(Cart)=    0.0000017326 RMS(Int)=    0.0000030770
 Iter   8:  RMS(Cart)=    0.0000012248 RMS(Int)=    0.0000028543
 Iter   9:  RMS(Cart)=    0.0000008867 RMS(Int)=    0.0000027026
 Iter  10:  RMS(Cart)=    0.0000006644 RMS(Int)=    0.0000025896
 Iter  11:  RMS(Cart)=    0.0000005220 RMS(Int)=    0.0000024979
 Iter  12:  RMS(Cart)=    0.0000004338 RMS(Int)=    0.0000024180
 Iter  13:  RMS(Cart)=    0.0000003807 RMS(Int)=    0.0000023453
 Iter  14:  RMS(Cart)=    0.0000003486 RMS(Int)=    0.0000022772
 Iter  15:  RMS(Cart)=    0.0000003282 RMS(Int)=    0.0000022124
 Iter  16:  RMS(Cart)=    0.0000003139 RMS(Int)=    0.0000021503
 Iter  17:  RMS(Cart)=    0.0000003027 RMS(Int)=    0.0000020904
 Iter  18:  RMS(Cart)=    0.0000002933 RMS(Int)=    0.0000020325
 Iter  19:  RMS(Cart)=    0.0000002847 RMS(Int)=    0.0000019765
 Iter  20:  RMS(Cart)=    0.0000002762 RMS(Int)=    0.0000019222
 Iter  21:  RMS(Cart)=    0.0000002685 RMS(Int)=    0.0000018697
 Iter  22:  RMS(Cart)=    0.0000002608 RMS(Int)=    0.0000018187
 Iter  23:  RMS(Cart)=    0.0000002535 RMS(Int)=    0.0000017694
 Iter  24:  RMS(Cart)=    0.0000002464 RMS(Int)=    0.0000017215
 Iter  25:  RMS(Cart)=    0.0000002392 RMS(Int)=    0.0000016751
 Iter  26:  RMS(Cart)=    0.0000002321 RMS(Int)=    0.0000016302
 Iter  27:  RMS(Cart)=    0.0000002256 RMS(Int)=    0.0000015865
 Iter  28:  RMS(Cart)=    0.0000002192 RMS(Int)=    0.0000015442
 Iter  29:  RMS(Cart)=    0.0000002128 RMS(Int)=    0.0000015032
 Iter  30:  RMS(Cart)=    0.0000002068 RMS(Int)=    0.0000014634
 Iter  31:  RMS(Cart)=    0.0000002010 RMS(Int)=    0.0000014248
 Iter  32:  RMS(Cart)=    0.0000001952 RMS(Int)=    0.0000013874
 Iter  33:  RMS(Cart)=    0.0000001898 RMS(Int)=    0.0000013511
 Iter  34:  RMS(Cart)=    0.0000001843 RMS(Int)=    0.0000013159
 Iter  35:  RMS(Cart)=    0.0000001790 RMS(Int)=    0.0000012817
 Iter  36:  RMS(Cart)=    0.0000001741 RMS(Int)=    0.0000012485
 Iter  37:  RMS(Cart)=    0.0000001689 RMS(Int)=    0.0000012163
 Iter  38:  RMS(Cart)=    0.0000001646 RMS(Int)=    0.0000011851
 Iter  39:  RMS(Cart)=    0.0000001603 RMS(Int)=    0.0000011547
 Iter  40:  RMS(Cart)=    0.0000001554 RMS(Int)=    0.0000011253
 Iter  41:  RMS(Cart)=    0.0000001507 RMS(Int)=    0.0000010967
 Iter  42:  RMS(Cart)=    0.0000001475 RMS(Int)=    0.0000010690
 Iter  43:  RMS(Cart)=    0.0000001426 RMS(Int)=    0.0000010421
 Iter  44:  RMS(Cart)=    0.0000001390 RMS(Int)=    0.0000010159
 Iter  45:  RMS(Cart)=    0.0000001355 RMS(Int)=    0.0000009906
CONVERGED
Small eigenvalue found = 8.233e-03
Small eigenvalue found = 1.134e-02
Small eigenvalue found = 1.684e-02
The first mode is                       ....   91
The number of degrees of freedom        ....   81
Storing new coordinates                 .... done

    -----------------------------------------------------------------
                    Redundant Internal Coordinates


    -----------------------------------------------------------------
         Definition                    Initial Value    Approx d2E/dq
    -----------------------------------------------------------------
      1. B(C   1,C   0)                  1.5333         0.369027   
      2. B(C   2,C   1)                  1.5471         0.350825   
      3. B(C   3,C   2)                  1.5492         0.348147   
      4. B(O   4,C   0)                  1.4668         0.422031   
      5. B(O   4,C   3)                  1.4789         0.403699   
      6. B(H   5,C   0)                  1.0919         0.357632   
      7. B(H   6,C   1)                  1.0958         0.352561   
      8. B(H   7,C   1)                  1.0951         0.353431   
      9. B(H   8,C   2)                  1.0945         0.354166   
     10. B(H   9,C   2)                  1.0966         0.351438   
     11. B(H  10,C   3)                  1.0954         0.353010   
     12. B(H  11,C   3)                  1.0939         0.354989   
     13. B(H  13,C  12)                  1.0970         0.350971   
     14. B(H  14,C  12)                  1.0983         0.349238   
     15. B(O  15,C   0)                  1.5525         0.307993   
     16. B(O  15,C  12)                  1.5527         0.307826   
     17. B(C  16,C  12)                  1.5546         0.341354   
     18. B(C  17,C  16)                  1.5327         0.369895   
     19. B(C  18,C  17)                  1.5470         0.351000   
     20. B(C  19,C  18)                  1.5494         0.347823   
     21. B(O  20,C  16)                  1.4664         0.422649   
     22. B(O  20,C  19)                  1.4779         0.405111   
     23. B(H  21,C  16)                  1.0912         0.358574   
     24. B(O  22,C  17)                  1.5534         0.306993   
     25. B(H  23,C  17)                  1.0955         0.352900   
     26. B(H  24,C  18)                  1.0936         0.355315   
     27. B(H  25,C  18)                  1.0971         0.350783   
     28. B(H  26,C  19)                  1.0944         0.354360   
     29. B(H  27,C  19)                  1.0933         0.355821   
     30. B(H  28,O  22)                  1.0978         0.313399   
     31. A(O   4,C   0,H   5)          107.0215         0.328541   
     32. A(C   1,C   0,O  15)          111.3020         0.348740   
     33. A(C   1,C   0,O   4)          104.2485         0.367935   
     34. A(O   4,C   0,O  15)          110.4735         0.354548   
     35. A(C   1,C   0,H   5)          114.4377         0.323302   
     36. A(H   5,C   0,O  15)          109.1577         0.312058   
     37. A(C   0,C   1,C   2)          101.6797         0.358729   
     38. A(C   2,C   1,H   7)          112.8319         0.320016   
     39. A(C   2,C   1,H   6)          110.6708         0.319888   
     40. A(C   0,C   1,H   6)          110.0677         0.322546   
     41. A(H   6,C   1,H   7)          108.3681         0.289027   
     42. A(C   0,C   1,H   7)          113.1243         0.322677   
     43. A(C   1,C   2,H   8)          112.8318         0.320125   
     44. A(C   1,C   2,C   3)          103.1267         0.355196   
     45. A(C   1,C   2,H   9)          110.0800         0.319721   
     46. A(C   3,C   2,H   9)          110.6152         0.319321   
     47. A(C   3,C   2,H   8)          112.4038         0.319725   
     48. A(H   8,C   2,H   9)          107.7728         0.288977   
     49. A(O   4,C   3,H  10)          109.1298         0.325449   
     50. A(C   2,C   3,H  10)          112.5253         0.319554   
     51. A(C   2,C   3,O   4)          106.5276         0.361529   
     52. A(O   4,C   3,H  11)          107.1237         0.325748   
     53. A(H  10,C   3,H  11)          108.8728         0.289284   
     54. A(C   2,C   3,H  11)          112.4566         0.319846   
     55. A(C   0,O   4,C   3)          108.3147         0.371320   
     56. A(H  14,C  12,C  16)          107.6697         0.317971   
     57. A(H  13,C  12,H  14)          108.1543         0.288284   
     58. A(H  13,C  12,O  15)          109.3106         0.311083   
     59. A(H  14,C  12,O  15)          110.5243         0.310835   
     60. A(O  15,C  12,C  16)          112.7600         0.344167   
     61. A(H  13,C  12,C  16)          108.2904         0.318227   
     62. A(C   0,O  15,C  12)          115.1653         0.336245   
     63. A(C  12,C  16,C  17)          111.2428         0.357206   
     64. A(C  12,C  16,O  20)          110.4406         0.363148   
     65. A(C  17,C  16,O  20)          104.2247         0.368176   
     66. A(C  12,C  16,H  21)          109.1069         0.319342   
     67. A(C  17,C  16,H  21)          114.5619         0.323567   
     68. A(O  20,C  16,H  21)          107.0663         0.328764   
     69. A(C  16,C  17,C  18)          101.7468         0.358903   
     70. A(C  16,C  17,O  22)          110.0129         0.348687   
     71. A(C  18,C  17,O  22)          110.6994         0.345624   
     72. A(C  16,C  17,H  23)          113.1668         0.322721   
     73. A(C  18,C  17,H  23)          112.8933         0.319964   
     74. A(O  22,C  17,H  23)          108.2350         0.311222   
     75. A(C  17,C  18,C  19)          103.1045         0.355170   
     76. A(C  17,C  18,H  24)          112.8433         0.320321   
     77. A(C  19,C  18,H  24)          112.4782         0.319845   
     78. A(C  17,C  18,H  25)          110.0046         0.319650   
     79. A(C  19,C  18,H  25)          110.6084         0.319176   
     80. A(H  24,C  18,H  25)          107.7867         0.289039   
     81. A(C  18,C  19,O  20)          106.5152         0.361687   
     82. A(C  18,C  19,H  26)          112.5453         0.319705   
     83. A(O  20,C  19,H  26)          109.1743         0.325840   
     84. A(C  18,C  19,H  27)          112.3811         0.319920   
     85. A(O  20,C  19,H  27)          107.1580         0.326061   
     86. A(H  26,C  19,H  27)          108.8666         0.289563   
     87. A(C  16,O  20,C  19)          108.3889         0.371637   
     88. A(C  17,O  22,H  28)          109.5887         0.302810   
     89. D(H   7,C   1,C   0,H   5)     82.1518         0.010890   
     90. D(C   2,C   1,C   0,O  15)     79.0868         0.010890   
     91. D(H   7,C   1,C   0,O  15)    -42.1868         0.010890   
     92. D(H   6,C   1,C   0,O   4)     77.3259         0.010890   
     93. D(H   6,C   1,C   0,O  15)   -163.5727         0.010890   
     94. D(H   6,C   1,C   0,H   5)    -39.2341         0.010890   
     95. D(H   7,C   1,C   0,O   4)   -161.2882         0.010890   
     96. D(C   2,C   1,C   0,O   4)    -40.0145         0.010890 C 
     97. D(C   2,C   1,C   0,H   5)   -156.5746         0.010890   
     98. D(H   9,C   2,C   1,H   6)    160.0776         0.009912   
     99. D(H   8,C   2,C   1,C   0)    156.5479         0.009912   
    100. D(H   8,C   2,C   1,H   6)     39.6446         0.009912   
    101. D(C   3,C   2,C   1,C   0)     35.0270         0.009912 C 
    102. D(H   8,C   2,C   1,H   7)    -81.9752         0.009912   
    103. D(H   9,C   2,C   1,C   0)    -83.0191         0.009912   
    104. D(C   3,C   2,C   1,H   6)    -81.8763         0.009912   
    105. D(H   9,C   2,C   1,H   7)     38.4578         0.009912   
    106. D(C   3,C   2,C   1,H   7)    156.5039         0.009912   
    107. D(H  11,C   3,C   2,H   9)   -143.4628         0.009774   
    108. D(O   4,C   3,C   2,H   8)   -140.0066         0.009774   
    109. D(O   4,C   3,C   2,H   9)     99.4739         0.009774   
    110. D(H  10,C   3,C   2,C   1)   -137.7432         0.009774   
    111. D(H  10,C   3,C   2,H   8)    100.4468         0.009774   
    112. D(H  10,C   3,C   2,H   9)    -20.0727         0.009774   
    113. D(H  11,C   3,C   2,C   1)     98.8667         0.009774   
    114. D(O   4,C   3,C   2,C   1)    -18.1967         0.009774 C 
    115. D(H  11,C   3,C   2,H   8)    -22.9433         0.009774   
    116. D(C   3,O   4,C   0,C   1)     29.5918         0.014035 C 
    117. D(C   3,O   4,C   0,H   5)    151.2015         0.014035   
    118. D(C   3,O   4,C   0,O  15)    -90.0711         0.014035   
    119. D(C   0,O   4,C   3,C   2)     -6.8732         0.012866 C 
    120. D(C   0,O   4,C   3,H  10)    114.8547         0.012866   
    121. D(C   0,O   4,C   3,H  11)   -127.4272         0.012866   
    122. D(C   0,O  15,C  12,C  16)     90.0000         0.007786 C 
    123. D(C  12,O  15,C   0,O   4)   -105.0000         0.007793 C 
    124. D(C  12,O  15,C   0,H   5)     12.4190         0.007793   
    125. D(C   0,O  15,C  12,H  14)    -30.5661         0.007786   
    126. D(C   0,O  15,C  12,H  13)   -149.4939         0.007786   
    127. D(C  12,O  15,C   0,C   1)    139.6866         0.007793   
    128. D(C  17,C  16,C  12,H  13)    -56.3563         0.009428   
    129. D(H  21,C  16,C  12,H  14)     59.5722         0.009428   
    130. D(C  17,C  16,C  12,O  15)     64.7325         0.009428   
    131. D(O  20,C  16,C  12,H  13)     58.8726         0.009428   
    132. D(O  20,C  16,C  12,H  14)    -57.8516         0.009428   
    133. D(O  20,C  16,C  12,O  15)    179.9615         0.009428 C 
    134. D(C  17,C  16,C  12,H  14)   -173.0806         0.009428   
    135. D(H  21,C  16,C  12,H  13)    176.2965         0.009428   
    136. D(H  21,C  16,C  12,O  15)    -62.6147         0.009428   
    137. D(C  18,C  17,C  16,C  12)     79.1034         0.010938   
    138. D(C  18,C  17,C  16,O  20)    -39.9149         0.010938 C 
    139. D(C  18,C  17,C  16,H  21)   -156.5777         0.010938   
    140. D(O  22,C  17,C  16,C  12)   -163.5116         0.010938   
    141. D(O  22,C  17,C  16,O  20)     77.4700         0.010938   
    142. D(O  22,C  17,C  16,H  21)    -39.1928         0.010938   
    143. D(H  23,C  17,C  16,C  12)    -42.3073         0.010938   
    144. D(H  23,C  17,C  16,O  20)   -161.3257         0.010938   
    145. D(H  23,C  17,C  16,H  21)     82.0115         0.010938   
    146. D(H  24,C  18,C  17,H  23)    -81.8530         0.009922   
    147. D(C  19,C  18,C  17,O  22)    -81.9441         0.009922   
    148. D(C  19,C  18,C  17,H  23)    156.5443         0.009922   
    149. D(H  24,C  18,C  17,C  16)    156.5466         0.009922   
    150. D(C  19,C  18,C  17,C  16)     34.9439         0.009922 C 
    151. D(H  24,C  18,C  17,O  22)     39.6587         0.009922   
    152. D(H  25,C  18,C  17,C  16)    -83.0479         0.009922   
    153. D(H  25,C  18,C  17,O  22)    160.0642         0.009922   
    154. D(H  25,C  18,C  17,H  23)     38.5526         0.009922   
    155. D(H  27,C  19,C  18,H  25)   -143.5122         0.009757   
    156. D(O  20,C  19,C  18,H  24)   -139.9852         0.009757   
    157. D(O  20,C  19,C  18,H  25)     99.4316         0.009757   
    158. D(H  26,C  19,C  18,C  17)   -137.7407         0.009757   
    159. D(H  26,C  19,C  18,H  24)    100.4100         0.009757   
    160. D(H  26,C  19,C  18,H  25)    -20.1731         0.009757   
    161. D(H  27,C  19,C  18,C  17)     98.9202         0.009757   
    162. D(O  20,C  19,C  18,C  17)    -18.1359         0.009757 C 
    163. D(H  27,C  19,C  18,H  24)    -22.9291         0.009757   
    164. D(C  19,O  20,C  16,C  12)    -90.0380         0.014076   
    165. D(C  19,O  20,C  16,C  17)     29.5247         0.014076 C 
    166. D(C  19,O  20,C  16,H  21)    151.2873         0.014076   
    167. D(C  16,O  20,C  19,C  18)     -6.8680         0.012953 C 
    168. D(C  16,O  20,C  19,H  26)    114.9016         0.012953   
    169. D(C  16,O  20,C  19,H  27)   -127.3450         0.012953   
    170. D(H  28,O  22,C  17,C  16)    -55.9234         0.007749   
    171. D(H  28,O  22,C  17,C  18)     55.7459         0.007749   
    172. D(H  28,O  22,C  17,H  23)    179.9636         0.007749   
    -----------------------------------------------------------------

Number of atoms                         .... 29
Number of degrees of freedom            .... 172

Time needed for optimization step       :     2.24 sec

         *************************************************************
         *                GEOMETRY OPTIMIZATION CYCLE   1            *
         *************************************************************
---------------------------------
CARTESIAN COORDINATES (ANGSTROEM)
---------------------------------
  C    -21.047912   26.221996   46.251008
  C    -20.361091   27.558090   45.943983
  C    -20.329000   28.222051   47.341004
  C    -20.109755   27.022035   48.295925
  O    -20.472708   25.807029   47.534924
  H    -20.832906   25.428066   45.532931
  H    -19.344117   27.382214   45.575853
  H    -20.898247   28.157061   45.201073
  H    -19.543073   28.978134   47.433939
  H    -21.289029   28.709938   47.548136
  H    -20.732654   27.081928   49.195002
  H    -19.063706   26.913138   48.596795
  C    -23.430895   25.259888   45.734132
  H    -24.383907   25.672869   45.381141
  H    -22.904863   24.827962   44.872114
  O    -22.585911   26.393862   46.375198
  C    -23.738048   24.103917   46.727118
  C    -24.622126   24.584963   47.883036
  C    -26.022064   24.597016   47.224908
  C    -25.967033   23.386007   46.259919
  O    -24.537027   23.063943   46.071048
  H    -22.800096   23.639872   47.036197
  O    -24.573277   23.561968   49.051047
  H    -24.326117   25.564951   48.273057
  H    -26.834132   24.515055   47.952836
  H    -26.165972   25.530018   46.665889
  H    -26.417937   23.604022   45.286878
  H    -26.445110   22.497030   46.679881
  H    -24.867288   22.569979   48.684027

----------------------------
CARTESIAN COORDINATES (A.U.)
----------------------------
  NO LB      ZA    FRAG     MASS         X           Y           Z
   0 C     6.0000    0    12.011  -39.774789   49.552390   87.401738
   1 C     6.0000    0    12.011  -38.476886   52.077242   86.821546
   2 C     6.0000    0    12.011  -38.416243   53.331946   89.461532
   3 C     6.0000    0    12.011  -38.001929   51.064245   91.266072
   4 O     8.0000    0    15.999  -38.687812   48.768217   89.827989
   5 H     1.0000    0     1.008  -39.368487   48.052081   86.044770
   6 H     1.0000    0     1.008  -36.555083   51.744885   86.125881
   7 H     1.0000    0     1.008  -39.491964   53.209134   85.417648
   8 H     1.0000    0     1.008  -36.931056   54.760738   89.637155
   9 H     1.0000    0     1.008  -40.230434   54.253920   89.852956
  10 H     1.0000    0     1.008  -39.179037   51.177427   92.965081
  11 H     1.0000    0     1.008  -36.025184   50.858461   91.834633
  12 C     6.0000    0    12.011  -44.277975   47.734270   86.424984
  13 H     1.0000    0     1.008  -46.078905   48.514691   85.757929
  14 H     1.0000    0     1.008  -43.283918   46.918049   84.796006
  15 O     8.0000    0    15.999  -42.681186   49.877171   87.636424
  16 C     6.0000    0    12.011  -44.858410   45.549801   88.301457
  17 C     6.0000    0    12.011  -46.529075   46.458846   90.485824
  18 C     6.0000    0    12.011  -49.174574   46.481623   89.242143
  19 C     6.0000    0    12.011  -49.070580   44.193149   87.418578
  20 O     8.0000    0    15.999  -46.368261   43.584536   87.061664
  21 H     1.0000    0     1.008  -43.085938   44.672883   88.885531
  22 O     8.0000    0    15.999  -46.436764   44.525667   92.693045
  23 H     1.0000    0     1.008  -45.969699   48.310757   91.222858
  24 H     1.0000    0     1.008  -50.709161   46.326740   90.617727
  25 H     1.0000    0     1.008  -49.446522   48.244742   88.185750
  26 H     1.0000    0     1.008  -49.922665   44.605138   85.579796
  27 H     1.0000    0     1.008  -49.974015   42.513226   88.212190
  28 H     1.0000    0     1.008  -46.992364   42.651079   91.999478

--------------------------------
INTERNAL COORDINATES (ANGSTROEM)
--------------------------------
 C      0   0   0     0.000000000000     0.00000000     0.00000000
 C      1   0   0     1.533334275362     0.00000000     0.00000000
 C      2   1   0     1.547103422529   101.67907390     0.00000000
 C      3   2   1     1.549188819996   103.12737509    35.02687180
 O      1   2   3     1.466801281701   104.24948604   319.98542309
 H      1   2   3     1.091872245274   114.43876658   203.42640133
 H      2   1   3     1.095759553917   110.06782188   117.34000099
 H      2   1   3     1.095088580892   113.12442239   238.72597460
 H      3   2   1     1.094523183857   112.83161078   156.54780790
 H      3   2   1     1.096628013503   110.07982737   276.98070077
 H      4   3   2     1.095413164062   112.52534669   222.25678475
 H      4   3   2     1.093891219455   112.45670684    98.86663270
 C      6   1   2     2.611173873950    78.47776017   227.74096390
 H     13   6   1     1.096989972607   144.62346011    82.87445449
 H     13   6   1     1.098336924627    59.22973488   160.62276515
 O      1   2   3     1.552547583812   111.30349807    79.08752829
 C     13   6   1     1.554552668776   107.06775512   261.37640633
 C     17  13   6     1.532694685839   111.24213947   124.55521433
 C     18  17  13     1.546967355829   101.74712639    79.10305797
 C     19  18  17     1.549442157681   103.10415317    34.94391800
 O     17  13   6     1.466402741405   110.44076724   239.78326807
 H     17  13   6     1.091155809222   109.10745800   357.20843826
 O     18  17  13     1.553432972484   110.01280711   196.48818015
 H     18  17  13     1.095498060245   113.16667630   317.69244430
 H     19  18  17     1.093641623202   112.84344156   156.54662311
 H     19  18  17     1.097135360837   110.00467990   276.95222199
 H     20  19  18     1.094373793546   112.54527105   222.25932743
 H     20  19  18     1.093254316250   112.38100692    98.92024099
 H     23  18  17     1.097811003771   109.58869530   304.07646957

---------------------------
INTERNAL COORDINATES (A.U.)
---------------------------
 C      0   0   0     0.000000000000     0.00000000     0.00000000
 C      1   0   0     2.897581852189     0.00000000     0.00000000
 C      2   1   0     2.923601769431   101.67907390     0.00000000
 C      3   2   1     2.927542599525   103.12737509    35.02687180
 O      1   2   3     2.771852715300   104.24948604   319.98542309
 H      1   2   3     2.063339516798   114.43876658   203.42640133
 H      2   1   3     2.070685465531   110.06782188   117.34000099
 H      2   1   3     2.069417510270   113.12442239   238.72597460
 H      3   2   1     2.068349064717   112.83161078   156.54780790
 H      3   2   1     2.072326616307   110.07982737   276.98070077
 H      4   3   2     2.070030883569   112.52534669   222.25678475
 H      4   3   2     2.067154825070   112.45670684    98.86663270
 C      6   1   2     4.934403509816    78.47776017   227.74096390
 H     13   6   1     2.073010619885   144.62346011    82.87445449
 H     13   6   1     2.075555990319    59.22973488   160.62276515
 O      1   2   3     2.933889743286   111.30349807    79.08752829
 C     13   6   1     2.937678804744   107.06775512   261.37640633
 C     17  13   6     2.896373203153   111.24213947   124.55521433
 C     18  17  13     2.923344640633   101.74712639    79.10305797
 C     19  18  17     2.928021338370   103.10415317    34.94391800
 O     17  13   6     2.771099583287   110.44076724   239.78326807
 H     17  13   6     2.061985648868   109.10745800   357.20843826
 O     18  17  13     2.935562885398   110.01280711   196.48818015
 H     18  17  13     2.070191314105   113.16667630   317.69244430
 H     19  18  17     2.066683156509   112.84344156   156.54662311
 H     19  18  17     2.073285363824   110.00467990   276.95222199
 H     20  19  18     2.068066757942   112.54527105   222.25932743
 H     20  19  18     2.065951252440   112.38100692    98.92024099
 H     23  18  17     2.074562143932   109.58869530   304.07646957

---------------------
BASIS SET INFORMATION
---------------------
There are 3 groups of distinct atoms

 Group   1 Type C   : 10s4p contracted to 3s2p pattern {631/31}
 Group   2 Type O   : 10s4p contracted to 3s2p pattern {631/31}
 Group   3 Type H   : 4s contracted to 2s pattern {31}

Atom   0C    basis set group =>   1
Atom   1C    basis set group =>   1
Atom   2C    basis set group =>   1
Atom   3C    basis set group =>   1
Atom   4O    basis set group =>   2
Atom   5H    basis set group =>   3
Atom   6H    basis set group =>   3
Atom   7H    basis set group =>   3
Atom   8H    basis set group =>   3
Atom   9H    basis set group =>   3
Atom  10H    basis set group =>   3
Atom  11H    basis set group =>   3
Atom  12C    basis set group =>   1
Atom  13H    basis set group =>   3
Atom  14H    basis set group =>   3
Atom  15O    basis set group =>   2
Atom  16C    basis set group =>   1
Atom  17C    basis set group =>   1
Atom  18C    basis set group =>   1
Atom  19C    basis set group =>   1
Atom  20O    basis set group =>   2
Atom  21H    basis set group =>   3
Atom  22O    basis set group =>   2
Atom  23H    basis set group =>   3
Atom  24H    basis set group =>   3
Atom  25H    basis set group =>   3
Atom  26H    basis set group =>   3
Atom  27H    basis set group =>   3
Atom  28H    basis set group =>   3
------------------------------------------------------------------------------
                           ORCA GTO INTEGRAL CALCULATION
------------------------------------------------------------------------------

                         BASIS SET STATISTICS AND STARTUP INFO

 # of primitive gaussian shells          ...  246
 # of primitive gaussian functions       ...  350
 # of contracted shells                  ...   97
 # of contracted basis functions         ...  149
 Highest angular momentum                ...    1
 Maximum contraction depth               ...    6
 Integral package used                   ... LIBINT
 Integral threshhold            Thresh   ...  2.500e-11
 Primitive cut-off              TCut     ...  2.500e-12


------------------------------ INTEGRAL EVALUATION ----------------------------


 * One electron integrals 
 Pre-screening matrix                    ... done
 Shell pair data                         ... done (   0.002 sec)

-------------------------------------------------------------------------------
                                 ORCA SCF
-------------------------------------------------------------------------------

------------
SCF SETTINGS
------------
Hamiltonian:
 Density Functional     Method          .... DFT(GTOs)
 Exchange Functional    Exchange        .... B88
   X-Alpha parameter    XAlpha          ....  0.666667
   Becke's b parameter  XBeta           ....  0.004200
 Correlation Functional Correlation     .... LYP
 LDA part of GGA corr.  LDAOpt          .... VWN-5
 Gradients option       PostSCFGGA      .... off
 Hybrid DFT is turned on
   Fraction HF Exchange ScalHFX         ....  0.200000
   Scaling of DF-GGA-X  ScalDFX         ....  0.720000
   Scaling of DF-GGA-C  ScalDFC         ....  0.810000
   Scaling of DF-LDA-C  ScalLDAC        ....  1.000000
   Perturbative correction              ....  0.000000
   Density functional embedding theory  .... OFF
   NL short-range parameter             ....  4.800000


General Settings:
 Integral files         IntName         .... project_8050/ensemble_255_90
 Hartree-Fock type      HFTyp           .... RHF
 Total Charge           Charge          ....    0
 Multiplicity           Mult            ....    1
 Number of Electrons    NEL             ....  102
 Basis Dimension        Dim             ....  149
 Nuclear Repulsion      ENuc            ....    856.8070514333 Eh

Convergence Acceleration:
 DIIS                   CNVDIIS         .... on
   Start iteration      DIISMaxIt       ....    12
   Startup error        DIISStart       ....  0.200000
   # of expansion vecs  DIISMaxEq       ....     5
   Bias factor          DIISBfac        ....   1.050
   Max. coefficient     DIISMaxC        ....  10.000
 Newton-Raphson         CNVNR           .... off
 SOSCF                  CNVSOSCF        .... on
   Start iteration      SOSCFMaxIt      ....   150
   Startup grad/error   SOSCFStart      ....  0.003300
 Level Shifting         CNVShift        .... on
   Level shift para.    LevelShift      ....    0.2500
   Turn off err/grad.   ShiftErr        ....    0.0010
 Zerner damping         CNVZerner       .... off
 Static damping         CNVDamp         .... on
   Fraction old density DampFac         ....    0.7000
   Max. Damping (<1)    DampMax         ....    0.9800
   Min. Damping (>=0)   DampMin         ....    0.0000
   Turn off err/grad.   DampErr         ....    0.1000
 Fernandez-Rico         CNVRico         .... off

SCF Procedure:
 Maximum # iterations   MaxIter         ....   125
 SCF integral mode      SCFMode         .... Direct
   Integral package                     .... LIBINT
 Reset frequency        DirectResetFreq ....    20
 Integral Threshold     Thresh          ....  2.500e-11 Eh
 Primitive CutOff       TCut            ....  2.500e-12 Eh

Convergence Tolerance:
 Convergence Check Mode ConvCheckMode   .... Total+1el-Energy
 Convergence forced     ConvForced      .... 0
 Energy Change          TolE            ....  1.000e-08 Eh
 1-El. energy change                    ....  1.000e-05 Eh
 Orbital Gradient       TolG            ....  1.000e-05
 Orbital Rotation angle TolX            ....  1.000e-05
 DIIS Error             TolErr          ....  5.000e-07


Diagonalization of the overlap matrix:
Smallest eigenvalue                        ... 4.279e-03
Time for diagonalization                   ...    0.006 sec
Threshold for overlap eigenvalues          ... 1.000e-08
Number of eigenvalues below threshold      ... 0
Time for construction of square roots      ...    0.251 sec
Total time needed                          ...    0.257 sec

-------------------
DFT GRID GENERATION
-------------------

General Integration Accuracy     IntAcc      ...  4.340
Radial Grid Type                 RadialGrid  ... Gauss-Chebyshev
Angular Grid (max. acc.)         AngularGrid ... Lebedev-110
Angular grid pruning method      GridPruning ... 3 (G Style)
Weight generation scheme         WeightScheme... Becke
Basis function cutoff            BFCut       ...    1.0000e-11
Integration weight cutoff        WCut        ...    1.0000e-14
Grids for H and He will be reduced by one unit

# of grid points (after initial pruning)     ...  34472 (   0.0 sec)
# of grid points (after weights+screening)   ...  31039 (   0.2 sec)
nearest neighbour list constructed           ...    0.0 sec
Grid point re-assignment to atoms done       ...    0.0 sec
Grid point division into batches done        ...    0.0 sec
Reduced shell lists constructed in    0.7 sec

Total number of grid points                  ...    31039
Total number of batches                      ...      499
Average number of points per batch           ...       62
Average number of grid points per atom       ...     1070
Average number of shells per batch           ...    57.07 (58.84%)
Average number of basis functions per batch  ...    92.72 (62.23%)
Average number of large shells per batch     ...    40.19 (70.42%)
Average number of large basis fcns per batch ...    66.62 (71.85%)
Maximum spatial batch extension              ...  20.16, 20.09, 20.82 au
Average spatial batch extension              ...   3.33,  3.48,  3.34 au

Time for grid setup =    3.983 sec

------------------------------
INITIAL GUESS: MODEL POTENTIAL
------------------------------
Loading Hartree-Fock densities                     ... done
Calculating cut-offs                               ... done
Setting up the integral package                    ... done
Initializing the effective Hamiltonian             ... done
Starting the Coulomb interaction                   ... done (   0.3 sec)
Reading the grid                                   ... done
Mapping shells                                     ... done
Starting the XC term evaluation                    ... done (   0.3 sec)
  promolecular density results
     # of electrons  =    101.986083474
     EX              =    -83.659975163
     EC              =     -3.455305623
     EX+EC           =    -87.115280787
Transforming the Hamiltonian                       ... done (   9.0 sec)
Diagonalizing the Hamiltonian                      ... done (   0.0 sec)
Back transforming the eigenvectors                 ... done (   0.0 sec)
Now organizing SCF variables                       ... done
                      ------------------
                      INITIAL GUESS DONE (  15.0 sec)
                      ------------------
--------------
SCF ITERATIONS
--------------
ITER       Energy         Delta-E        Max-DP      RMS-DP      [F,P]     Damp
               ***  Starting incremental Fock matrix formation  ***
  0   -652.5439901193   0.000000000000 0.07390459  0.00297785  0.2429069 0.7000
  1   -652.6824692494  -0.138479130079 0.04314487  0.00203890  0.1073829 0.7000
                               ***Turning on DIIS***
  2   -652.7347819602  -0.052312710823 0.05320367  0.00328719  0.0295871 0.0000
  3   -652.8205378145  -0.085755854299 0.02969155  0.00134751  0.0553379 0.0000
  4   -652.8379282835  -0.017390469040 0.00798268  0.00042245  0.0085542 0.0000
  5   -652.8388951048  -0.000966821254 0.00282070  0.00012733  0.0039820 0.0000
                      *** Initiating the SOSCF procedure ***
                           *** Shutting down DIIS ***
                      *** Re-Reading the Fockian *** 
                      *** Removing any level shift *** 
ITER      Energy       Delta-E        Grad      Rot      Max-DP    RMS-DP
  6   -652.83896558  -0.0000704712  0.000184  0.000184  0.000862  0.000054
               *** Restarting incremental Fock matrix formation ***
  7   -652.83896847  -0.0000028986  0.000146  0.000207  0.000928  0.000031
  8   -652.83896679   0.0000016797  0.000240  0.000166  0.000580  0.000019
  9   -652.83896964  -0.0000028420  0.000026  0.000047  0.000214  0.000007
 10   -652.83896955   0.0000000874  0.000039  0.000030  0.000138  0.000004
 11   -652.83896971  -0.0000001584  0.000006  0.000006  0.000033  0.000001
 12   -652.83896971   0.0000000017  0.000010  0.000004  0.000020  0.000001
                  ***Gradient check signals convergence***
              ***Rediagonalizing the Fockian in SOSCF/NRSCF***

               *****************************************************
               *                     SUCCESS                       *
               *           SCF CONVERGED AFTER  13 CYCLES          *
               *****************************************************

Setting up the final grid:

General Integration Accuracy     IntAcc      ...  4.670
Radial Grid Type                 RadialGrid  ... Gauss-Chebyshev
Angular Grid (max. acc.)         AngularGrid ... Lebedev-302
Angular grid pruning method      GridPruning ... 3 (G Style)
Weight generation scheme         WeightScheme... Becke
Basis function cutoff            BFCut       ...    1.0000e-11
Integration weight cutoff        WCut        ...    1.0000e-14
Grids for H and He will be reduced by one unit

# of grid points (after initial pruning)     ... 135060 (   0.1 sec)
# of grid points (after weights+screening)   ... 119216 (   0.8 sec)
nearest neighbour list constructed           ...    0.0 sec
Grid point re-assignment to atoms done       ...    0.0 sec
Grid point division into batches done        ...    0.5 sec
Reduced shell lists constructed in    1.4 sec

Total number of grid points                  ...   119216
Total number of batches                      ...     1875
Average number of points per batch           ...       63
Average number of grid points per atom       ...     4111
Average number of shells per batch           ...    51.89 (53.50%)
Average number of basis functions per batch  ...    84.55 (56.74%)
Average number of large shells per batch     ...    35.86 (69.10%)
Average number of large basis fcns per batch ...    59.58 (70.47%)
Maximum spatial batch extension              ...  20.90, 18.31, 18.19 au
Average spatial batch extension              ...   2.17,  2.25,  2.21 au

Final grid set up in   13.1 sec
Final integration                            ... done (  19.6 sec)
Change in XC energy                          ...    -0.000709624
Integrated number of electrons               ...   101.999669197
Previous integrated no of electrons          ...   101.994913511

----------------
TOTAL SCF ENERGY
----------------

Total Energy       :         -652.83967933 Eh          -17764.67081 eV

Components:
Nuclear Repulsion  :          856.80705143 Eh           23314.90518 eV
Electronic Energy  :        -1509.64673077 Eh          -41079.57599 eV
One Electron Energy:        -2591.65478754 Eh          -70522.51206 eV
Two Electron Energy:         1082.00805678 Eh           29442.93607 eV

Virial components:
Potential Energy   :        -1301.75671706 Eh          -35422.60112 eV
Kinetic Energy     :          648.91703773 Eh           17657.93031 eV
Virial Ratio       :            2.00604490


DFT components:
N(Alpha)           :       50.999834598561 electrons
N(Beta)            :       50.999834598561 electrons
N(Total)           :      101.999669197121 electrons
E(X)               :      -67.588650885715 Eh       
E(C)               :       -4.067864670377 Eh       
E(XC)              :      -71.656515556091 Eh       
DFET-embed. en.    :        0.000000000000 Eh       

---------------
SCF CONVERGENCE
---------------

  Last Energy change         ...   -3.4053e-09  Tolerance :   1.0000e-08
  Last MAX-Density change    ...    2.3324e-06  Tolerance :   1.0000e-07
  Last RMS-Density change    ...    1.0400e-07  Tolerance :   5.0000e-09
  Last Orbital Gradient      ...    3.6280e-07  Tolerance :   1.0000e-05
  Last Orbital Rotation      ...    5.8324e-07  Tolerance :   1.0000e-05

             **** THE GBW FILE WAS UPDATED (project_8050/ensemble_255_90.gbw) ****
             **** DENSITY FILE WAS UPDATED (project_8050/ensemble_255_90.scfp) ****
             **** ENERGY FILE WAS UPDATED (project_8050/ensemble_255_90.en.tmp) ****
             **** THE GBW FILE WAS UPDATED (project_8050/ensemble_255_90.gbw) ****
             **** DENSITY FILE WAS UPDATED (project_8050/ensemble_255_90.scfp) ****
----------------
ORBITAL ENERGIES
----------------

  NO   OCC          E(Eh)            E(eV) 
   0   2.0000     -19.147811      -521.0384 
   1   2.0000     -19.145843      -520.9849 
   2   2.0000     -19.144020      -520.9353 
   3   2.0000     -19.136952      -520.7429 
   4   2.0000     -10.285650      -279.8868 
   5   2.0000     -10.236909      -278.5605 
   6   2.0000     -10.234573      -278.4969 
   7   2.0000     -10.231552      -278.4147 
   8   2.0000     -10.231165      -278.4042 
   9   2.0000     -10.224960      -278.2353 
  10   2.0000     -10.191831      -277.3338 
  11   2.0000     -10.190023      -277.2846 
  12   2.0000     -10.187346      -277.2118 
  13   2.0000      -1.033239       -28.1159 
  14   2.0000      -1.028985       -28.0001 
  15   2.0000      -0.964163       -26.2362 
  16   2.0000      -0.955856       -26.0102 
  17   2.0000      -0.788577       -21.4583 
  18   2.0000      -0.778711       -21.1898 
  19   2.0000      -0.761436       -20.7197 
  20   2.0000      -0.730343       -19.8736 
  21   2.0000      -0.669389       -18.2150 
  22   2.0000      -0.598645       -16.2900 
  23   2.0000      -0.597126       -16.2486 
  24   2.0000      -0.592032       -16.1100 
  25   2.0000      -0.572093       -15.5675 
  26   2.0000      -0.511812       -13.9271 
  27   2.0000      -0.505263       -13.7489 
  28   2.0000      -0.489440       -13.3183 
  29   2.0000      -0.487106       -13.2548 
  30   2.0000      -0.459781       -12.5113 
  31   2.0000      -0.446827       -12.1588 
  32   2.0000      -0.439235       -11.9522 
  33   2.0000      -0.433648       -11.8002 
  34   2.0000      -0.414043       -11.2667 
  35   2.0000      -0.412690       -11.2299 
  36   2.0000      -0.399155       -10.8615 
  37   2.0000      -0.384428       -10.4608 
  38   2.0000      -0.372178       -10.1275 
  39   2.0000      -0.363201        -9.8832 
  40   2.0000      -0.357796        -9.7361 
  41   2.0000      -0.354153        -9.6370 
  42   2.0000      -0.350827        -9.5465 
  43   2.0000      -0.326670        -8.8891 
  44   2.0000      -0.316874        -8.6226 
  45   2.0000      -0.309703        -8.4275 
  46   2.0000      -0.301323        -8.1994 
  47   2.0000      -0.275517        -7.4972 
  48   2.0000      -0.261434        -7.1140 
  49   2.0000      -0.252558        -6.8725 
  50   2.0000      -0.236566        -6.4373 
  51   0.0000       0.038806         1.0560 
  52   0.0000       0.057808         1.5730 
  53   0.0000       0.085431         2.3247 
  54   0.0000       0.094522         2.5721 
  55   0.0000       0.096734         2.6323 
  56   0.0000       0.109402         2.9770 
  57   0.0000       0.116237         3.1630 
  58   0.0000       0.120052         3.2668 
  59   0.0000       0.132076         3.5940 
  60   0.0000       0.140471         3.8224 
  61   0.0000       0.148170         4.0319 
  62   0.0000       0.150942         4.1073 
  63   0.0000       0.156110         4.2480 
  64   0.0000       0.161113         4.3841 
  65   0.0000       0.167777         4.5654 
  66   0.0000       0.173896         4.7320 
  67   0.0000       0.178380         4.8540 
  68   0.0000       0.179621         4.8877 
  69   0.0000       0.194415         5.2903 
  70   0.0000       0.198438         5.3998 
  71   0.0000       0.218450         5.9443 
  72   0.0000       0.225673         6.1409 
  73   0.0000       0.228245         6.2109 
  74   0.0000       0.240197         6.5361 
  75   0.0000       0.247644         6.7387 
  76   0.0000       0.250342         6.8122 
  77   0.0000       0.265650         7.2287 
  78   0.0000       0.279882         7.6160 
  79   0.0000       0.288196         7.8422 
  80   0.0000       0.304043         8.2734 
  81   0.0000       0.524783        14.2801 
  82   0.0000       0.526624        14.3302 
  83   0.0000       0.542736        14.7686 
  84   0.0000       0.551599        15.0098 
  85   0.0000       0.553633        15.0651 
  86   0.0000       0.557567        15.1722 
  87   0.0000       0.577206        15.7066 
  88   0.0000       0.587393        15.9838 
  89   0.0000       0.593037        16.1374 
  90   0.0000       0.597276        16.2527 
  91   0.0000       0.605248        16.4696 
  92   0.0000       0.609638        16.5891 
  93   0.0000       0.626685        17.0530 
  94   0.0000       0.640424        17.4268 
  95   0.0000       0.643030        17.4977 
  96   0.0000       0.669534        18.2189 
  97   0.0000       0.672146        18.2900 
  98   0.0000       0.677808        18.4441 
  99   0.0000       0.710519        19.3342 
 100   0.0000       0.742831        20.2135 
 101   0.0000       0.755743        20.5648 
 102   0.0000       0.790448        21.5092 
 103   0.0000       0.808817        22.0090 
 104   0.0000       0.813906        22.1475 
 105   0.0000       0.820366        22.3233 
 106   0.0000       0.835511        22.7354 
 107   0.0000       0.851869        23.1805 
 108   0.0000       0.865240        23.5444 
 109   0.0000       0.871517        23.7152 
 110   0.0000       0.879973        23.9453 
 111   0.0000       0.885728        24.1019 
 112   0.0000       0.899281        24.4707 
 113   0.0000       0.909201        24.7406 
 114   0.0000       0.913387        24.8545 
 115   0.0000       0.931377        25.3441 
 116   0.0000       0.940704        25.5979 
 117   0.0000       0.944092        25.6900 
 118   0.0000       0.956263        26.0212 
 119   0.0000       0.961660        26.1681 
 120   0.0000       0.970349        26.4045 
 121   0.0000       0.976692        26.5771 
 122   0.0000       0.990944        26.9649 
 123   0.0000       1.008155        27.4333 
 124   0.0000       1.012040        27.5390 
 125   0.0000       1.047849        28.5134 
 126   0.0000       1.068614        29.0785 
 127   0.0000       1.085755        29.5449 
 128   0.0000       1.133030        30.8313 
 129   0.0000       1.152855        31.3708 
 130   0.0000       1.171993        31.8915 
 131   0.0000       1.214079        33.0368 
 132   0.0000       1.265234        34.4288 
 133   0.0000       1.297980        35.3198 
 134   0.0000       1.307323        35.5741 
 135   0.0000       1.325339        36.0643 
 136   0.0000       1.359836        37.0030 
 137   0.0000       1.400618        38.1127 
 138   0.0000       1.416547        38.5462 
 139   0.0000       1.447435        39.3867 
 140   0.0000       1.495114        40.6841 
 141   0.0000       1.601014        43.5658 
 142   0.0000       1.653819        45.0027 
 143   0.0000       1.685369        45.8612 
 144   0.0000       1.774063        48.2747 
 145   0.0000       1.838467        50.0272 
 146   0.0000       1.878699        51.1220 
 147   0.0000       2.051121        55.8138 
 148   0.0000       2.100181        57.1488 

                    ********************************
                    * MULLIKEN POPULATION ANALYSIS *
                    ********************************

-----------------------
MULLIKEN ATOMIC CHARGES
-----------------------
   0 C :    0.281855
   1 C :   -0.267486
   2 C :   -0.303177
   3 C :   -0.001257
   4 O :   -0.501428
   5 H :    0.148821
   6 H :    0.151845
   7 H :    0.156549
   8 H :    0.142275
   9 H :    0.164534
  10 H :    0.153852
  11 H :    0.142012
  12 C :   -0.041223
  13 H :    0.142898
  14 H :    0.144937
  15 O :   -0.514353
  16 C :    0.067835
  17 C :    0.086636
  18 C :   -0.308704
  19 C :   -0.028345
  20 O :   -0.523536
  21 H :    0.180905
  22 O :   -0.596207
  23 H :    0.176587
  24 H :    0.163636
  25 H :    0.146167
  26 H :    0.146364
  27 H :    0.143494
  28 H :    0.344513
Sum of atomic charges:   -0.0000000

--------------------------------
MULLIKEN REDUCED ORBITAL CHARGES
--------------------------------
  0 C s       :     3.227774  s :     3.227774
      pz      :     0.806111  p :     2.490371
      px      :     0.688342
      py      :     0.995918
  1 C s       :     3.308016  s :     3.308016
      pz      :     0.988456  p :     2.959470
      px      :     1.029258
      py      :     0.941756
  2 C s       :     3.316736  s :     3.316736
      pz      :     0.906351  p :     2.986441
      px      :     1.088617
      py      :     0.991474
  3 C s       :     3.260913  s :     3.260913
      pz      :     0.941671  p :     2.740344
      px      :     1.057268
      py      :     0.741405
  4 O s       :     3.942758  s :     3.942758
      pz      :     1.315650  p :     4.558670
      px      :     1.723808
      py      :     1.519213
  5 H s       :     0.851179  s :     0.851179
  6 H s       :     0.848155  s :     0.848155
  7 H s       :     0.843451  s :     0.843451
  8 H s       :     0.857725  s :     0.857725
  9 H s       :     0.835466  s :     0.835466
 10 H s       :     0.846148  s :     0.846148
 11 H s       :     0.857988  s :     0.857988
 12 C s       :     3.298300  s :     3.298300
      pz      :     0.966687  p :     2.742922
      px      :     0.961893
      py      :     0.814343
 13 H s       :     0.857102  s :     0.857102
 14 H s       :     0.855063  s :     0.855063
 15 O s       :     3.944797  s :     3.944797
      pz      :     1.756498  p :     4.569556
      px      :     1.240543
      py      :     1.572515
 16 C s       :     3.270250  s :     3.270250
      pz      :     0.880010  p :     2.661915
      px      :     0.960039
      py      :     0.821866
 17 C s       :     3.297686  s :     3.297686
      pz      :     0.764206  p :     2.615678
      px      :     0.911458
      py      :     0.940014
 18 C s       :     3.316877  s :     3.316877
      pz      :     1.010674  p :     2.991827
      px      :     0.997917
      py      :     0.983236
 19 C s       :     3.267959  s :     3.267959
      pz      :     1.051512  p :     2.760386
      px      :     0.707233
      py      :     1.001641
 20 O s       :     3.945673  s :     3.945673
      pz      :     1.778425  p :     4.577863
      px      :     1.204251
      py      :     1.595188
 21 H s       :     0.819095  s :     0.819095
 22 O s       :     3.952163  s :     3.952163
      pz      :     1.521723  p :     4.644044
      px      :     1.894120
      py      :     1.228201
 23 H s       :     0.823413  s :     0.823413
 24 H s       :     0.836364  s :     0.836364
 25 H s       :     0.853833  s :     0.853833
 26 H s       :     0.853636  s :     0.853636
 27 H s       :     0.856506  s :     0.856506
 28 H s       :     0.655487  s :     0.655487


                     *******************************
                     * LOEWDIN POPULATION ANALYSIS *
                     *******************************

----------------------
LOEWDIN ATOMIC CHARGES
----------------------
   0 C :    0.183136
   1 C :   -0.218206
   2 C :   -0.217381
   3 C :   -0.028409
   4 O :   -0.314429
   5 H :    0.104329
   6 H :    0.118063
   7 H :    0.124321
   8 H :    0.113903
   9 H :    0.119725
  10 H :    0.108764
  11 H :    0.102126
  12 C :   -0.045045
  13 H :    0.108702
  14 H :    0.106390
  15 O :   -0.364397
  16 C :    0.014690
  17 C :    0.046220
  18 C :   -0.239125
  19 C :   -0.039835
  20 O :   -0.327349
  21 H :    0.126954
  22 O :   -0.442231
  23 H :    0.132159
  24 H :    0.127486
  25 H :    0.113301
  26 H :    0.103043
  27 H :    0.100816
  28 H :    0.282277

-------------------------------
LOEWDIN REDUCED ORBITAL CHARGES
-------------------------------
  0 C s       :     2.981211  s :     2.981211
      pz      :     0.920744  p :     2.835652
      px      :     0.828544
      py      :     1.086364
  1 C s       :     2.976951  s :     2.976951
      pz      :     1.079236  p :     3.241255
      px      :     1.106897
      py      :     1.055121
  2 C s       :     2.973103  s :     2.973103
      pz      :     1.030974  p :     3.244278
      px      :     1.133386
      py      :     1.079919
  3 C s       :     2.983739  s :     2.983739
      pz      :     1.039744  p :     3.044670
      px      :     1.119584
      py      :     0.885342
  4 O s       :     3.609396  s :     3.609396
      pz      :     1.380383  p :     4.705033
      px      :     1.758777
      py      :     1.565873
  5 H s       :     0.895671  s :     0.895671
  6 H s       :     0.881937  s :     0.881937
  7 H s       :     0.875679  s :     0.875679
  8 H s       :     0.886097  s :     0.886097
  9 H s       :     0.880275  s :     0.880275
 10 H s       :     0.891236  s :     0.891236
 11 H s       :     0.897874  s :     0.897874
 12 C s       :     3.007953  s :     3.007953
      pz      :     1.055231  p :     3.037092
      px      :     1.037422
      py      :     0.944439
 13 H s       :     0.891298  s :     0.891298
 14 H s       :     0.893610  s :     0.893610
 15 O s       :     3.661120  s :     3.661120
      pz      :     1.791323  p :     4.703277
      px      :     1.305329
      py      :     1.606625
 16 C s       :     2.971799  s :     2.971799
      pz      :     1.015453  p :     3.013511
      px      :     1.041513
      py      :     0.956545
 17 C s       :     2.975878  s :     2.975878
      pz      :     0.928576  p :     2.977902
      px      :     1.044324
      py      :     1.005002
 18 C s       :     2.982154  s :     2.982154
      pz      :     1.090142  p :     3.256971
      px      :     1.083223
      py      :     1.083606
 19 C s       :     2.983540  s :     2.983540
      pz      :     1.113425  p :     3.056294
      px      :     0.848613
      py      :     1.094256
 20 O s       :     3.602707  s :     3.602707
      pz      :     1.805072  p :     4.724642
      px      :     1.277662
      py      :     1.641908
 21 H s       :     0.873046  s :     0.873046
 22 O s       :     3.695196  s :     3.695196
      pz      :     1.563644  p :     4.747035
      px      :     1.902995
      py      :     1.280397
 23 H s       :     0.867841  s :     0.867841
 24 H s       :     0.872514  s :     0.872514
 25 H s       :     0.886699  s :     0.886699
 26 H s       :     0.896957  s :     0.896957
 27 H s       :     0.899184  s :     0.899184
 28 H s       :     0.717723  s :     0.717723


                      *****************************
                      * MAYER POPULATION ANALYSIS *
                      *****************************

  NA   - Mulliken gross atomic population
  ZA   - Total nuclear charge
  QA   - Mulliken gross atomic charge
  VA   - Mayer's total valence
  BVA  - Mayer's bonded valence
  FA   - Mayer's free valence

  ATOM       NA         ZA         QA         VA         BVA        FA
  0 C      5.7181     6.0000     0.2819     3.6609     3.6609     0.0000
  1 C      6.2675     6.0000    -0.2675     3.7321     3.7321    -0.0000
  2 C      6.3032     6.0000    -0.3032     3.7656     3.7656     0.0000
  3 C      6.0013     6.0000    -0.0013     3.6553     3.6553    -0.0000
  4 O      8.5014     8.0000    -0.5014     1.8090     1.8090     0.0000
  5 H      0.8512     1.0000     0.1488     0.9338     0.9338     0.0000
  6 H      0.8482     1.0000     0.1518     0.9294     0.9294     0.0000
  7 H      0.8435     1.0000     0.1565     0.9399     0.9399     0.0000
  8 H      0.8577     1.0000     0.1423     0.9365     0.9365     0.0000
  9 H      0.8355     1.0000     0.1645     0.9314     0.9314    -0.0000
 10 H      0.8461     1.0000     0.1539     0.9256     0.9256    -0.0000
 11 H      0.8580     1.0000     0.1420     0.9285     0.9285     0.0000
 12 C      6.0412     6.0000    -0.0412     3.6468     3.6468    -0.0000
 13 H      0.8571     1.0000     0.1429     0.9388     0.9388    -0.0000
 14 H      0.8551     1.0000     0.1449     0.9336     0.9336    -0.0000
 15 O      8.5144     8.0000    -0.5144     1.7973     1.7973     0.0000
 16 C      5.9322     6.0000     0.0678     3.5637     3.5637     0.0000
 17 C      5.9134     6.0000     0.0866     3.6269     3.6269    -0.0000
 18 C      6.3087     6.0000    -0.3087     3.7058     3.7058     0.0000
 19 C      6.0283     6.0000    -0.0283     3.6612     3.6612    -0.0000
 20 O      8.5235     8.0000    -0.5235     1.7600     1.7600    -0.0000
 21 H      0.8191     1.0000     0.1809     0.9346     0.9346    -0.0000
 22 O      8.5962     8.0000    -0.5962     1.7598     1.7598    -0.0000
 23 H      0.8234     1.0000     0.1766     0.9423     0.9423    -0.0000
 24 H      0.8364     1.0000     0.1636     0.9393     0.9393     0.0000
 25 H      0.8538     1.0000     0.1462     0.9341     0.9341    -0.0000
 26 H      0.8536     1.0000     0.1464     0.9267     0.9267     0.0000
 27 H      0.8565     1.0000     0.1435     0.9298     0.9298    -0.0000
 28 H      0.6555     1.0000     0.3445     0.8511     0.8511     0.0000

  Mayer bond orders larger than 0.100000
B(  0-C ,  1-C ) :   0.9409 B(  0-C ,  4-O ) :   0.9202 B(  0-C ,  5-H ) :   0.9176 
B(  0-C , 15-O ) :   0.8403 B(  1-C ,  2-C ) :   0.9584 B(  1-C ,  6-H ) :   0.9344 
B(  1-C ,  7-H ) :   0.9354 B(  2-C ,  3-C ) :   0.9531 B(  2-C ,  8-H ) :   0.9448 
B(  2-C ,  9-H ) :   0.9443 B(  3-C ,  4-O ) :   0.8378 B(  3-C , 10-H ) :   0.9336 
B(  3-C , 11-H ) :   0.9389 B( 12-C , 13-H ) :   0.9331 B( 12-C , 14-H ) :   0.9214 
B( 12-C , 15-O ) :   0.8653 B( 12-C , 16-C ) :   0.8703 B( 16-C , 17-C ) :   0.9111 
B( 16-C , 20-O ) :   0.8361 B( 16-C , 21-H ) :   0.9248 B( 17-C , 18-C ) :   0.9167 
B( 17-C , 22-O ) :   0.8844 B( 17-C , 23-H ) :   0.9227 B( 18-C , 19-C ) :   0.9393 
B( 18-C , 24-H ) :   0.9373 B( 18-C , 25-H ) :   0.9313 B( 19-C , 20-O ) :   0.8444 
B( 19-C , 26-H ) :   0.9349 B( 19-C , 27-H ) :   0.9380 B( 22-O , 28-H ) :   0.8128 


-------
TIMINGS
-------

Total SCF time: 0 days 0 hours 13 min 51 sec 

Total time                  ....     831.093 sec
Sum of individual times     ....     432.708 sec  ( 52.1%)

Fock matrix formation       ....     367.581 sec  ( 44.2%)
  XC integration            ....     156.048 sec  ( 42.5% of F)
    Basis function eval.    ....       3.445 sec  (  2.2% of XC)
    Density eval.           ....       3.281 sec  (  2.1% of XC)
    XC-Functional eval.     ....       5.858 sec  (  3.8% of XC)
    XC-Potential eval.      ....       1.559 sec  (  1.0% of XC)
Diagonalization             ....       5.539 sec  (  0.7%)
Density matrix formation    ....       0.014 sec  (  0.0%)
Population analysis         ....      19.679 sec  (  2.4%)
Initial guess               ....      10.978 sec  (  1.3%)
Orbital Transformation      ....       0.000 sec  (  0.0%)
Orbital Orthonormalization  ....       0.000 sec  (  0.0%)
DIIS solution               ....       3.170 sec  (  0.4%)
SOSCF solution              ....       8.683 sec  (  1.0%)
Grid generation             ....      17.063 sec  (  2.1%)

-------------------------   --------------------
FINAL SINGLE POINT ENERGY      -652.839679333644
-------------------------   --------------------

------------------------------------------------------------------------------
                         ORCA SCF GRADIENT CALCULATION
------------------------------------------------------------------------------

Gradient of the Kohn-Sham DFT energy:
Kohn-Sham wavefunction type      ... RKS
Hartree-Fock exchange scaling    ...    0.200
Number of operators              ...    1
Number of atoms                  ...   29
Basis set dimensions             ...  149
Integral neglect threshold       ... 2.5e-11
Integral primitive cutoff        ... 2.5e-12

Nuclear repulsion gradient       ... done
One Electron Gradient            ... done
Pre-screening matrix             ... done
Starting the two electron gradient:
Two electron gradient done
Exchange-correlation gradient    ... done

------------------
CARTESIAN GRADIENT
------------------

   1   C   :    0.017404343    0.008440910   -0.011229393
   2   C   :    0.012850619   -0.004875306   -0.004421115
   3   C   :   -0.000396451   -0.000414342   -0.001832821
   4   C   :    0.000089721   -0.004471483   -0.003785900
   5   O   :    0.010810533   -0.005115144    0.017034415
   6   H   :    0.003792849    0.001559233   -0.000910313
   7   H   :    0.000482713    0.003269730   -0.000039336
   8   H   :    0.000491167    0.002330216   -0.001118671
   9   H   :   -0.000632036    0.000623929    0.000050326
  10   H   :   -0.000508517    0.001532022    0.000989358
  11   H   :   -0.000477077    0.001043604    0.001514601
  12   H   :   -0.000378512    0.000958580    0.000604306
  13   C   :   -0.017019390   -0.002293404   -0.010179354
  14   H   :   -0.007588943   -0.009742434   -0.001717068
  15   H   :   -0.001843126   -0.004438119   -0.000638616
  16   O   :   -0.011366807    0.024540854    0.020674230
  17   C   :   -0.009943817   -0.014795463   -0.004174680
  18   C   :    0.004471963    0.027943200   -0.014747873
  19   C   :   -0.000438886    0.003863382   -0.000206889
  20   C   :    0.003660599   -0.001937700    0.000497268
  21   O   :   -0.000359046   -0.003050676    0.003620488
  22   H   :    0.001884091    0.000281013   -0.004884542
  23   O   :    0.018049771    0.029951277    0.039948369
  24   H   :   -0.001972750    0.009114779   -0.006296131
  25   H   :   -0.002505733   -0.000310492   -0.001525626
  26   H   :    0.000205403    0.000165834   -0.001455631
  27   H   :    0.000369977    0.000844282    0.000076712
  28   H   :    0.000686078    0.000893030    0.000315392
  29   H   :   -0.019818735   -0.065911311   -0.016161506

Difference to translation invariance:
           :    0.0000000000    0.0000000000    0.0000000001

Norm of the cartesian gradient     ...    0.1111490087
RMS gradient                       ...    0.0119164245
MAX gradient                       ...    0.0659113109

-------
TIMINGS
-------

Total SCF gradient time            ...       24.441 sec

One electron gradient       ....       0.383 sec  (  1.6%)
Prescreening matrices       ....       0.042 sec  (  0.2%)
Two electron gradient       ....      12.822 sec  ( 52.5%)
XC gradient                 ....       6.719 sec  ( 27.5%)
------------------------------------------------------------------------------
                         ORCA GEOMETRY RELAXATION STEP
------------------------------------------------------------------------------

Reading the OPT-File                    .... done
Getting information on internals        .... done
Copying old internal coords+grads       .... done
Making the new internal coordinates     .... (new redundants).... done
Validating the new internal coordinates .... (new redundants).... done
Calculating the B-matrix                .... done
Calculating the G,G- and P matrices     .... done
Transforming gradient to internals      .... done
Projecting the internal gradient        .... done
Number of atoms                         ....  29
Number of internal coordinates          .... 172
Current Energy                          ....  -652.839679334 Eh
Current gradient norm                   ....     0.111149009 Eh/bohr
Maximum allowed component of the step   ....  0.300
Current trust radius                    ....  0.300
Evaluating the initial hessian          ....  (Almloef) done
Projecting the Hessian                  .... done
Forming the augmented Hessian           .... done
Diagonalizing the augmented Hessian     .... done
Last element of RFO vector              ....  0.945058407
Lowest eigenvalues of augmented Hessian:
 -0.037242048  0.007855120  0.032975879  0.033088374  0.036541593
Length of the computed step             ....  0.345906161
Warning: the length of the step is outside the trust region - taking restricted step instead
The input lambda is                     ....    -0.037242
   iter:   1  x=   -0.068501  g=    0.948577 f(x)=     0.029651
   iter:   2  x=   -0.079046  g=    0.601144 f(x)=     0.006340
   iter:   3  x=   -0.079713  g=    0.535736 f(x)=     0.000357
   iter:   4  x=   -0.079715  g=    0.532034 f(x)=     0.000001
   iter:   5  x=   -0.079715  g=    0.532022 f(x)=     0.000000
   iter:   6  x=   -0.079715  g=    0.532022 f(x)=     0.000000
The output lambda is                    ....    -0.079715 (6 iterations)
The final length of the internal step   ....  0.300000000
Converting the step to cartesian space:
 Initial RMS(Int)=    0.0228747855
Transforming coordinates:
 Iter   0:  RMS(Cart)=    0.1007462063 RMS(Int)=    0.4780661562
 Iter   1:  RMS(Cart)=    0.0011254525 RMS(Int)=    0.0005034024
 Iter   2:  RMS(Cart)=    0.0000730716 RMS(Int)=    0.0000401833
 Iter   3:  RMS(Cart)=    0.0000046175 RMS(Int)=    0.0000028288
 Iter   4:  RMS(Cart)=    0.0000002798 RMS(Int)=    0.0000001874
 Iter   5:  RMS(Cart)=    0.0000000169 RMS(Int)=    0.0000000121
Imposing constraints:
 Iter   0:  RMS(Cart)=    0.0000671878 RMS(Int)=    0.0000357450
 Iter   1:  RMS(Cart)=    0.0000380928 RMS(Int)=    0.0000247304
 Iter   2:  RMS(Cart)=    0.0000233774 RMS(Int)=    0.0000182176
 Iter   3:  RMS(Cart)=    0.0000152367 RMS(Int)=    0.0000142195
 Iter   4:  RMS(Cart)=    0.0000103360 RMS(Int)=    0.0000117659
 Iter   5:  RMS(Cart)=    0.0000072040 RMS(Int)=    0.0000102760
 Iter   6:  RMS(Cart)=    0.0000051335 RMS(Int)=    0.0000093657
 Iter   7:  RMS(Cart)=    0.0000037451 RMS(Int)=    0.0000087871
 Iter   8:  RMS(Cart)=    0.0000028136 RMS(Int)=    0.0000083910
 Iter   9:  RMS(Cart)=    0.0000021943 RMS(Int)=    0.0000080932
 Iter  10:  RMS(Cart)=    0.0000017884 RMS(Int)=    0.0000078488
 Iter  11:  RMS(Cart)=    0.0000015253 RMS(Int)=    0.0000076342
[...]
  29   2.0000      -0.487949       -13.2778 
  30   2.0000      -0.466426       -12.6921 
  31   2.0000      -0.458066       -12.4646 
  32   2.0000      -0.448818       -12.2129 
  33   2.0000      -0.438395       -11.9293 
  34   2.0000      -0.423489       -11.5237 
  35   2.0000      -0.412106       -11.2140 
  36   2.0000      -0.398540       -10.8448 
  37   2.0000      -0.389403       -10.5962 
  38   2.0000      -0.373175       -10.1546 
  39   2.0000      -0.365178        -9.9370 
  40   2.0000      -0.356544        -9.7021 
  41   2.0000      -0.353099        -9.6083 
  42   2.0000      -0.349628        -9.5139 
  43   2.0000      -0.331098        -9.0096 
  44   2.0000      -0.321467        -8.7476 
  45   2.0000      -0.310114        -8.4386 
  46   2.0000      -0.300156        -8.1677 
  47   2.0000      -0.278494        -7.5782 
  48   2.0000      -0.263467        -7.1693 
  49   2.0000      -0.254009        -6.9119 
  50   2.0000      -0.237104        -6.4519 
  51   0.0000       0.066765         1.8168 
  52   0.0000       0.076938         2.0936 
  53   0.0000       0.096444         2.6244 
  54   0.0000       0.100452         2.7334 
  55   0.0000       0.106572         2.9000 
  56   0.0000       0.114147         3.1061 
  57   0.0000       0.119862         3.2616 
  58   0.0000       0.133212         3.6249 
  59   0.0000       0.138747         3.7755 
  60   0.0000       0.142512         3.8779 
  61   0.0000       0.153033         4.1642 
  62   0.0000       0.157112         4.2752 
  63   0.0000       0.160168         4.3584 
  64   0.0000       0.163633         4.4527 
  65   0.0000       0.177084         4.8187 
  66   0.0000       0.180414         4.9093 
  67   0.0000       0.186440         5.0733 
  68   0.0000       0.192360         5.2344 
  69   0.0000       0.197777         5.3818 
  70   0.0000       0.218945         5.9578 
  71   0.0000       0.224245         6.1020 
  72   0.0000       0.229998         6.2586 
  73   0.0000       0.234430         6.3792 
  74   0.0000       0.250037         6.8038 
  75   0.0000       0.258718         7.0401 
  76   0.0000       0.267537         7.2801 
  77   0.0000       0.277159         7.5419 
  78   0.0000       0.286461         7.7950 
  79   0.0000       0.299232         8.1425 
  80   0.0000       0.313226         8.5233 
  81   0.0000       0.526995        14.3403 
  82   0.0000       0.536247        14.5920 
  83   0.0000       0.542378        14.7588 
  84   0.0000       0.553469        15.0607 
  85   0.0000       0.555743        15.1225 
  86   0.0000       0.560527        15.2527 
  87   0.0000       0.577894        15.7253 
  88   0.0000       0.587497        15.9866 
  89   0.0000       0.593021        16.1369 
  90   0.0000       0.601766        16.3749 
  91   0.0000       0.612161        16.6577 
  92   0.0000       0.615300        16.7432 
  93   0.0000       0.627561        17.0768 
  94   0.0000       0.643690        17.5157 
  95   0.0000       0.646797        17.6002 
  96   0.0000       0.669528        18.2188 
  97   0.0000       0.675845        18.3907 
  98   0.0000       0.688537        18.7361 
  99   0.0000       0.719222        19.5710 
 100   0.0000       0.753778        20.5113 
 101   0.0000       0.774256        21.0686 
 102   0.0000       0.797489        21.7008 
 103   0.0000       0.812077        22.0977 
 104   0.0000       0.824292        22.4301 
 105   0.0000       0.837466        22.7886 
 106   0.0000       0.845698        23.0126 
 107   0.0000       0.853124        23.2147 
 108   0.0000       0.863383        23.4938 
 109   0.0000       0.871609        23.7177 
 110   0.0000       0.883654        24.0454 
 111   0.0000       0.889728        24.2107 
 112   0.0000       0.903939        24.5974 
 113   0.0000       0.913919        24.8690 
 114   0.0000       0.917061        24.9545 
 115   0.0000       0.932342        25.3703 
 116   0.0000       0.941523        25.6201 
 117   0.0000       0.943508        25.6742 
 118   0.0000       0.956084        26.0164 
 119   0.0000       0.962426        26.1889 
 120   0.0000       0.969486        26.3811 
 121   0.0000       0.978096        26.6154 
 122   0.0000       0.989716        26.9315 
 123   0.0000       1.004772        27.3412 
 124   0.0000       1.017685        27.6926 
 125   0.0000       1.052929        28.6516 
 126   0.0000       1.074779        29.2462 
 127   0.0000       1.109319        30.1861 
 128   0.0000       1.128438        30.7063 
 129   0.0000       1.161591        31.6085 
 130   0.0000       1.187351        32.3095 
 131   0.0000       1.241864        33.7928 
 132   0.0000       1.264206        34.4008 
 133   0.0000       1.300551        35.3898 
 134   0.0000       1.323146        36.0046 
 135   0.0000       1.335605        36.3437 
 136   0.0000       1.362322        37.0707 
 137   0.0000       1.406566        38.2746 
 138   0.0000       1.434562        39.0364 
 139   0.0000       1.461249        39.7626 
 140   0.0000       1.519458        41.3466 
 141   0.0000       1.619125        44.0586 
 142   0.0000       1.690581        46.0031 
 143   0.0000       1.700959        46.2854 
 144   0.0000       1.806705        49.1630 
 145   0.0000       1.892036        51.4849 
 146   0.0000       1.927272        52.4437 
 147   0.0000       2.067933        56.2713 
 148   0.0000       2.142595        58.3030 

                    ********************************
                    * MULLIKEN POPULATION ANALYSIS *
                    ********************************

-----------------------
MULLIKEN ATOMIC CHARGES
-----------------------
   0 C :    0.281304
   1 C :   -0.252590
   2 C :   -0.301477
   3 C :   -0.002236
   4 O :   -0.505040
   5 H :    0.143772
   6 H :    0.144226
   7 H :    0.150281
   8 H :    0.141637
   9 H :    0.162706
  10 H :    0.153881
  11 H :    0.142119
  12 C :   -0.026786
  13 H :    0.145578
  14 H :    0.142751
  15 O :   -0.516016
  16 C :    0.054108
  17 C :    0.097731
  18 C :   -0.293774
  19 C :   -0.032174
  20 O :   -0.528452
  21 H :    0.175027
  22 O :   -0.604324
  23 H :    0.169531
  24 H :    0.162163
  25 H :    0.141023
  26 H :    0.146101
  27 H :    0.146307
  28 H :    0.362623
Sum of atomic charges:    0.0000000

--------------------------------
MULLIKEN REDUCED ORBITAL CHARGES
--------------------------------
  0 C s       :     3.196382  s :     3.196382
      pz      :     0.817469  p :     2.522314
      px      :     0.689425
      py      :     1.015420
  1 C s       :     3.301631  s :     3.301631
      pz      :     0.982231  p :     2.950959
      px      :     1.035357
      py      :     0.933371
  2 C s       :     3.315845  s :     3.315845
      pz      :     0.908677  p :     2.985633
      px      :     1.086182
      py      :     0.990774
  3 C s       :     3.262536  s :     3.262536
      pz      :     0.929795  p :     2.739700
      px      :     1.067738
      py      :     0.742166
  4 O s       :     3.936729  s :     3.936729
      pz      :     1.289869  p :     4.568311
      px      :     1.753951
      py      :     1.524491
  5 H s       :     0.856228  s :     0.856228
  6 H s       :     0.855774  s :     0.855774
  7 H s       :     0.849719  s :     0.849719
  8 H s       :     0.858363  s :     0.858363
  9 H s       :     0.837294  s :     0.837294
 10 H s       :     0.846119  s :     0.846119
 11 H s       :     0.857881  s :     0.857881
 12 C s       :     3.272612  s :     3.272612
      pz      :     0.962682  p :     2.754174
      px      :     0.957203
      py      :     0.834289
 13 H s       :     0.854422  s :     0.854422
 14 H s       :     0.857249  s :     0.857249
 15 O s       :     3.917105  s :     3.917105
      pz      :     1.752336  p :     4.598911
      px      :     1.246753
      py      :     1.599823
 16 C s       :     3.268992  s :     3.268992
      pz      :     0.897592  p :     2.676900
      px      :     0.938497
      py      :     0.840810
 17 C s       :     3.258059  s :     3.258059
      pz      :     0.782210  p :     2.644211
      px      :     0.919863
      py      :     0.942138
 18 C s       :     3.311625  s :     3.311625
      pz      :     1.010667  p :     2.982149
      px      :     0.991859
      py      :     0.979624
 19 C s       :     3.271566  s :     3.271566
      pz      :     1.045873  p :     2.760609
      px      :     0.709978
      py      :     1.004758
 20 O s       :     3.946990  s :     3.946990
      pz      :     1.771567  p :     4.581462
      px      :     1.200689
      py      :     1.609207
 21 H s       :     0.824973  s :     0.824973
 22 O s       :     3.920657  s :     3.920657
      pz      :     1.543396  p :     4.683667
      px      :     1.923004
      py      :     1.217267
 23 H s       :     0.830469  s :     0.830469
 24 H s       :     0.837837  s :     0.837837
 25 H s       :     0.858977  s :     0.858977
 26 H s       :     0.853899  s :     0.853899
 27 H s       :     0.853693  s :     0.853693
 28 H s       :     0.637377  s :     0.637377


                     *******************************
                     * LOEWDIN POPULATION ANALYSIS *
                     *******************************

----------------------
LOEWDIN ATOMIC CHARGES
----------------------
   0 C :    0.172209
   1 C :   -0.217846
   2 C :   -0.216536
   3 C :   -0.026675
   4 O :   -0.322216
   5 H :    0.099605
   6 H :    0.113308
   7 H :    0.120594
   8 H :    0.113900
   9 H :    0.119218
  10 H :    0.108819
  11 H :    0.102664
  12 C :   -0.038859
  13 H :    0.107896
  14 H :    0.103158
  15 O :   -0.329267
  16 C :    0.004721
  17 C :    0.040545
  18 C :   -0.240951
  19 C :   -0.038659
  20 O :   -0.333427
  21 H :    0.121728
  22 O :   -0.414991
  23 H :    0.124880
  24 H :    0.126765
  25 H :    0.112000
  26 H :    0.103303
  27 H :    0.102646
  28 H :    0.281466

-------------------------------
LOEWDIN REDUCED ORBITAL CHARGES
-------------------------------
  0 C s       :     2.954380  s :     2.954380
      pz      :     0.930719  p :     2.873411
      px      :     0.850027
      py      :     1.092664
  1 C s       :     2.977856  s :     2.977856
      pz      :     1.076513  p :     3.239989
      px      :     1.111010
      py      :     1.052465
  2 C s       :     2.971312  s :     2.971312
      pz      :     1.031991  p :     3.245224
      px      :     1.133376
      py      :     1.079857
  3 C s       :     2.984348  s :     2.984348
      pz      :     1.030692  p :     3.042328
      px      :     1.127710
      py      :     0.883926
  4 O s       :     3.599234  s :     3.599234
      pz      :     1.361032  p :     4.722982
      px      :     1.789692
      py      :     1.572258
  5 H s       :     0.900395  s :     0.900395
  6 H s       :     0.886692  s :     0.886692
  7 H s       :     0.879406  s :     0.879406
  8 H s       :     0.886100  s :     0.886100
  9 H s       :     0.880782  s :     0.880782
 10 H s       :     0.891181  s :     0.891181
 11 H s       :     0.897336  s :     0.897336
 12 C s       :     2.982771  s :     2.982771
      pz      :     1.057869  p :     3.056088
      px      :     1.032727
      py      :     0.965491
 13 H s       :     0.892104  s :     0.892104
 14 H s       :     0.896842  s :     0.896842
 15 O s       :     3.584447  s :     3.584447
      pz      :     1.788881  p :     4.744820
      px      :     1.319343
      py      :     1.636597
 16 C s       :     2.971521  s :     2.971521
      pz      :     1.027423  p :     3.023757
      px      :     1.030931
      py      :     0.965403
 17 C s       :     2.952559  s :     2.952559
      pz      :     0.944944  p :     3.006897
      px      :     1.044298
      py      :     1.017655
 18 C s       :     2.983793  s :     2.983793
      pz      :     1.090969  p :     3.257157
      px      :     1.083238
      py      :     1.082951
 19 C s       :     2.985271  s :     2.985271
      pz      :     1.109861  p :     3.053388
      px      :     0.848565
      py      :     1.094962
 20 O s       :     3.605381  s :     3.605381
      pz      :     1.800426  p :     4.728046
      px      :     1.273420
      py      :     1.654200
 21 H s       :     0.878272  s :     0.878272
 22 O s       :     3.613928  s :     3.613928
      pz      :     1.591908  p :     4.801062
      px      :     1.930867
      py      :     1.278288
 23 H s       :     0.875120  s :     0.875120
 24 H s       :     0.873235  s :     0.873235
 25 H s       :     0.888000  s :     0.888000
 26 H s       :     0.896697  s :     0.896697
 27 H s       :     0.897354  s :     0.897354
 28 H s       :     0.718534  s :     0.718534


                      *****************************
                      * MAYER POPULATION ANALYSIS *
                      *****************************

  NA   - Mulliken gross atomic population
  ZA   - Total nuclear charge
  QA   - Mulliken gross atomic charge
  VA   - Mayer's total valence
  BVA  - Mayer's bonded valence
  FA   - Mayer's free valence

  ATOM       NA         ZA         QA         VA         BVA        FA
  0 C      5.7187     6.0000     0.2813     3.6764     3.6764     0.0000
  1 C      6.2526     6.0000    -0.2526     3.7329     3.7329     0.0000
  2 C      6.3015     6.0000    -0.3015     3.7681     3.7681     0.0000
  3 C      6.0022     6.0000    -0.0022     3.6581     3.6581    -0.0000
  4 O      8.5050     8.0000    -0.5050     1.7876     1.7876    -0.0000
  5 H      0.8562     1.0000     0.1438     0.9380     0.9380    -0.0000
  6 H      0.8558     1.0000     0.1442     0.9319     0.9319     0.0000
  7 H      0.8497     1.0000     0.1503     0.9423     0.9423    -0.0000
  8 H      0.8584     1.0000     0.1416     0.9369     0.9369    -0.0000
  9 H      0.8373     1.0000     0.1627     0.9333     0.9333    -0.0000
 10 H      0.8461     1.0000     0.1539     0.9259     0.9259    -0.0000
 11 H      0.8579     1.0000     0.1421     0.9293     0.9293     0.0000
 12 C      6.0268     6.0000    -0.0268     3.6399     3.6399     0.0000
 13 H      0.8544     1.0000     0.1456     0.9383     0.9383     0.0000
 14 H      0.8572     1.0000     0.1428     0.9360     0.9360     0.0000
 15 O      8.5160     8.0000    -0.5160     1.7454     1.7454    -0.0000
 16 C      5.9459     6.0000     0.0541     3.5750     3.5750    -0.0000
 17 C      5.9023     6.0000     0.0977     3.6327     3.6327    -0.0000
 18 C      6.2938     6.0000    -0.2938     3.6949     3.6949     0.0000
 19 C      6.0322     6.0000    -0.0322     3.6622     3.6622     0.0000
 20 O      8.5285     8.0000    -0.5285     1.7553     1.7553     0.0000
 21 H      0.8250     1.0000     0.1750     0.9361     0.9361    -0.0000
 22 O      8.6043     8.0000    -0.6043     1.7441     1.7441     0.0000
 23 H      0.8305     1.0000     0.1695     0.9410     0.9410    -0.0000
 24 H      0.8378     1.0000     0.1622     0.9398     0.9398     0.0000
 25 H      0.8590     1.0000     0.1410     0.9363     0.9363    -0.0000
 26 H      0.8539     1.0000     0.1461     0.9269     0.9269     0.0000
 27 H      0.8537     1.0000     0.1463     0.9288     0.9288     0.0000
 28 H      0.6374     1.0000     0.3626     0.8334     0.8334    -0.0000

  Mayer bond orders larger than 0.100000
B(  0-C ,  1-C ) :   0.9470 B(  0-C ,  4-O ) :   0.9241 B(  0-C ,  5-H ) :   0.9170 
B(  0-C , 15-O ) :   0.8425 B(  1-C ,  2-C ) :   0.9572 B(  1-C ,  6-H ) :   0.9382 
B(  1-C ,  7-H ) :   0.9380 B(  2-C ,  3-C ) :   0.9541 B(  2-C ,  8-H ) :   0.9452 
B(  2-C ,  9-H ) :   0.9440 B(  3-C ,  4-O ) :   0.8353 B(  3-C , 10-H ) :   0.9344 
B(  3-C , 11-H ) :   0.9401 B( 12-C , 13-H ) :   0.9395 B( 12-C , 14-H ) :   0.9203 
B( 12-C , 15-O ) :   0.8477 B( 12-C , 16-C ) :   0.8810 B( 16-C , 17-C ) :   0.9163 
B( 16-C , 20-O ) :   0.8344 B( 16-C , 21-H ) :   0.9224 B( 17-C , 18-C ) :   0.9107 
B( 17-C , 22-O ) :   0.8899 B( 17-C , 23-H ) :   0.9259 B( 18-C , 19-C ) :   0.9414 
B( 18-C , 24-H ) :   0.9378 B( 18-C , 25-H ) :   0.9355 B( 19-C , 20-O ) :   0.8418 
B( 19-C , 26-H ) :   0.9356 B( 19-C , 27-H ) :   0.9383 B( 22-O , 28-H ) :   0.7962 


-------
TIMINGS
-------

Total SCF time: 0 days 0 hours 2 min 47 sec 

Total time                  ....     167.035 sec
Sum of individual times     ....     145.086 sec  ( 86.9%)

Fock matrix formation       ....     124.779 sec  ( 74.7%)
  XC integration            ....      64.566 sec  ( 51.7% of F)
    Basis function eval.    ....       1.525 sec  (  2.4% of XC)
    Density eval.           ....       1.590 sec  (  2.5% of XC)
    XC-Functional eval.     ....       0.337 sec  (  0.5% of XC)
    XC-Potential eval.      ....       0.619 sec  (  1.0% of XC)
Diagonalization             ....       0.034 sec  (  0.0%)
Density matrix formation    ....       0.005 sec  (  0.0%)
Population analysis         ....       8.924 sec  (  5.3%)
Initial guess               ....       0.027 sec  (  0.0%)
Orbital Transformation      ....       0.000 sec  (  0.0%)
Orbital Orthonormalization  ....       0.004 sec  (  0.0%)
DIIS solution               ....       0.003 sec  (  0.0%)
SOSCF solution              ....       0.281 sec  (  0.2%)
Grid generation             ....      11.033 sec  (  6.6%)

-------------------------   --------------------
FINAL SINGLE POINT ENERGY      -652.866762321895
-------------------------   --------------------

                                *** OPTIMIZATION RUN DONE ***

                            ***************************************
                            *     ORCA property calculations      *
                            ***************************************

                                    ---------------------
                                    Active property flags
                                    ---------------------
   (+) Dipole Moment


------------------------------------------------------------------------------
                       ORCA ELECTRIC PROPERTIES CALCULATION
------------------------------------------------------------------------------

Dipole Moment Calculation                       ... on
Quadrupole Moment Calculation                   ... off
Polarizability Calculation                      ... off
GBWName                                         ... project_8050/ensemble_255_90.gbw
Electron density file                           ... project_8050/ensemble_255_90.scfp
The origin for moment calculation is the CENTER OF MASS  = (-43.310034, 47.881559 88.771519)

-------------
DIPOLE MOMENT
-------------
                                X             Y             Z
Electronic contribution:      0.01348      -4.50335       0.66976
Nuclear contribution   :     -0.13533       5.31809      -1.40267
                        -----------------------------------------
Total Dipole Moment    :     -0.12185       0.81474      -0.73291
                        -----------------------------------------
Magnitude (a.u.)       :      1.10264
Magnitude (Debye)      :      2.80268



--------------------
Rotational spectrum 
--------------------
 
Rotational constants in cm-1:     0.056414     0.013354     0.012296 
Rotational constants in MHz :  1691.246782   400.333893   368.624463 

 Dipole components along the rotational axes: 
x,y,z [a.u.] :     0.374544     0.807568     0.650661 
x,y,z [Debye]:     0.952015     2.052674     1.653848 

 

Timings for individual modules:

Sum of individual times         ...     4256.496 sec (=  70.942 min)
GTO integral calculation        ...       65.302 sec (=   1.088 min)   1.5 %
SCF iterations                  ...     3931.482 sec (=  65.525 min)  92.4 %
SCF Gradient evaluation         ...      218.171 sec (=   3.636 min)   5.1 %
Geometry relaxation             ...       41.541 sec (=   0.692 min)   1.0 %
                             ****ORCA TERMINATED NORMALLY****
TOTAL RUN TIME: 0 days 1 hours 16 minutes 36 seconds 364 msec
