
                                 *****************
                                 * O   R   C   A *
                                 *****************

           --- An Ab Initio, DFT and Semiempirical electronic structure package ---

                  #######################################################
                  #                        -***-                        #
                  #          Department of theory and spectroscopy      #
                  #               Directorship: Frank Neese             #
                  #        Max Planck Institute fuer Kohlenforschung    #
                  #                Kaiser Wilhelm Platz 1               #
                  #                 D-45470 Muelheim/Ruhr               #
                  #                      Germany                        #
                  #                                                     #
                  #                  All rights reserved                #
                  #                        -***-                        #
                  #######################################################


                         Program Version 4.2.0 -  RELEASE  -


 With contributions from (in alphabetic order):
   Daniel Aravena         : Magnetic Suceptibility
   Michael Atanasov       : Ab Initio Ligand Field Theory (pilot matlab implementation)
   Alexander A. Auer      : GIAO ZORA, VPT2
   Ute Becker             : Parallelization
   Giovanni Bistoni       : ED, misc. LED, open-shell LED, HFLED
   Martin Brehm           : Molecular dynamics
   Dmytro Bykov           : SCF Hessian
   Vijay G. Chilkuri      : MRCI spin determinant printing, contributions to CSF-ICE
   Dipayan Datta          : RHF DLPNO-CCSD density
   Achintya Kumar Dutta   : EOM-CC, STEOM-CC
   Dmitry Ganyushin       : Spin-Orbit,Spin-Spin,Magnetic field MRCI
   Miquel Garcia          : C-PCM Hessian, Gaussian charge scheme
   Yang Guo               : DLPNO-NEVPT2, CIM, IAO-localization
   Andreas Hansen         : Spin unrestricted coupled pair/coupled cluster methods
   Benjamin Helmich-Paris : CASSCF linear response (MC-RPA)
   Lee Huntington         : MR-EOM, pCC
   Robert Izsak           : Overlap fitted RIJCOSX, COSX-SCS-MP3, EOM
   Christian Kollmar      : KDIIS, OOCD, Brueckner-CCSD(T), CCSD density
   Simone Kossmann        : Meta GGA functionals, TD-DFT gradient, OOMP2, MP2 Hessian
   Martin Krupicka        : AUTO-CI
   Lucas Lang             : DCDCAS
   Dagmar Lenk            : GEPOL surface, SMD
   Dimitrios Liakos       : Extrapolation schemes; Compound Job, initial MDCI parallelization
   Dimitrios Manganas     : Further ROCIS development; embedding schemes
   Dimitrios Pantazis     : SARC Basis sets
   Taras Petrenko         : DFT Hessian,TD-DFT gradient, ASA, ECA, R-Raman, ABS, FL, XAS/XES, NRVS
   Peter Pinski           : DLPNO-MP2, DLPNO-MP2 Gradient
   Christoph Reimann      : Effective Core Potentials
   Marius Retegan         : Local ZFS, SOC
   Christoph Riplinger    : Optimizer, TS searches, QM/MM, DLPNO-CCSD(T), (RO)-DLPNO pert. Triples
   Tobias Risthaus        : Range-separated hybrids, TD-DFT gradient, RPA, STAB
   Michael Roemelt        : Original ROCIS implementation
   Masaaki Saitow         : Open-shell DLPNO-CCSD energy and density
   Barbara Sandhoefer     : DKH picture change effects
   Avijit Sen             : IP-ROCIS
   Kantharuban Sivalingam : CASSCF convergence, NEVPT2, FIC-MRCI
   Bernardo de Souza      : ESD, SOC TD-DFT
   Georgi Stoychev        : AutoAux, RI-MP2 NMR
   Willem Van den Heuvel  : Paramagnetic NMR
   Boris Wezisla          : Elementary symmetry handling
   Frank Wennmohs         : Technical directorship


 We gratefully acknowledge several colleagues who have allowed us to
 interface, adapt or use parts of their codes:
   Stefan Grimme, W. Hujo, H. Kruse,             : VdW corrections, initial TS optimization,
                  C. Bannwarth                     DFT functionals, gCP, sTDA/sTD-DF
   Ed Valeev, F. Pavosevic, A. Kumar             : LibInt (2-el integral package), F12 methods
   Garnet Chan, S. Sharma, J. Yang, R. Olivares  : DMRG
   Ulf Ekstrom                                   : XCFun DFT Library
   Mihaly Kallay                                 : mrcc  (arbitrary order and MRCC methods)
   Andreas Klamt, Michael Diedenhofen            : otool_cosmo (COSMO solvation model)
   Jiri Pittner, Ondrej Demel                    : Mk-CCSD
   Frank Weinhold                                : gennbo (NPA and NBO analysis)
   Christopher J. Cramer and Donald G. Truhlar   : smd solvation model
   Lars Goerigk                                  : TD-DFT with DH, B97 family of functionals
   V. Asgeirsson, H. Jonsson                     : NEB implementation
   FAccTs GmbH                                   : IRC, NEB, NEB-TS, Multilevel, MM, QM/MM, CI optimization
   S Lehtola, MJT Oliveira, MAL Marques          : LibXC Library


 Your calculation uses the libint2 library for the computation of 2-el integrals
 For citations please refer to: http://libint.valeyev.net

 Your ORCA version has been built with support for libXC version: 4.2.3
 For citations please refer to: https://tddft.org/programs/libxc/

 This ORCA versions uses:
   CBLAS   interface :  Fast vector & matrix operations
   LAPACKE interface :  Fast linear algebra routines
   SCALAPACK package :  Parallel linear algebra routines


----- Orbital basis set information -----
Your calculation utilizes the basis: 6-31G
   H-He, Li-Ne : W. J. Hehre, R. Ditchfield and J.A. Pople, J. Chem. Phys. 56, 2257 (1972).
                 Note: He and Ne are unpublished basis sets taken from the Gaussian program.
                 Note: Li and B from J. D. Dill and J. A. Pople, J. Chem. Phys. 62, 2921 (1975).
   Na - Ar     : M. M. Francl, W. J. Pietro, W. J. Hehre, J. S. Binkley, M. S. Gordon, 
                 D. J. DeFrees and J. A. Pople, J. Chem. Phys. 77, 3654 (1982).
   K - Zn      : V. A. Rassolov, J. A. Pople, M. A. Ratner, and T. L. Windus, J. Chem. Phys. 109, 1223 (1998).

================================================================================
                                        WARNINGS
                       Please study these warnings very carefully!
================================================================================


WARNING: Geometry Optimization
  ===> : Switching off AutoStart
         For restart on a previous wavefunction, please use MOREAD

INFO   : the flag for use of LIBINT has been found!

================================================================================
                                       INPUT FILE
================================================================================
NAME = project_8049/ensemble_0_240.inp
|  1> # Test redundant internal optimization
|  2> #
|  3> ! RKS B3LYP  Opt TightSCF SmallPrint
|  4> 
|  5> %basis
|  6>         Basis "6-31G"
|  7> end
|  8> 
|  9> %geom
| 10> Constraints
| 11> { D 4  0  15  12  0.0   C } # D for Dihedral angle
| 12> { D 0  15  12  16  240.0   C } # D for Dihedral angle
| 13> { D 0  4  3  2   C } # D for Dihedral angle
| 14> { D 4  3  2  1   C } # D for Dihedral angle
| 15> { D 3  2  1  0   C } # D for Dihedral angle
| 16> { D 2  1  0  4   C } # D for Dihedral angle
| 17> { D 1  0  4  3   C } # D for Dihedral angle
| 18> { D 16  20  19  18   C } # D for Dihedral angle
| 19> { D 20  19  18  17   C } # D for Dihedral angle
| 20> { D 19  18  17  16   C } # D for Dihedral angle
| 21> { D 18  17  16  20   C } # D for Dihedral angle
| 22> { D 17  16  20  19   C } # D for Dihedral angle
| 23> { D 15  12  16  20   C } # D for Dihedral angle
| 24> end
| 25> end
| 26> 
| 27> 
| 28> #%pal 
| 29> #nprocs 8
| 30> #end
| 31> 
| 32> * xyz 0 1
| 33> C  -21.048   26.222   46.251
| 34> C  -20.361   27.558   45.944
| 35> C  -20.329   28.222   47.341
| 36> C  -20.110   27.022   48.296
| 37> O  -20.473   25.807   47.535
| 38> H  -20.833   25.428   45.533
| 39> H  -19.344   27.382   45.576
| 40> H  -20.898   28.157   45.201
| 41> H  -19.543   28.978   47.434
| 42> H  -21.289   28.710   47.548
| 43> H  -20.733   27.082   49.195
| 44> H  -19.064   26.913   48.597
| 45> C  -23.172   26.101   47.783
| 46> H  -22.357   25.822   48.464
| 47> H  -23.666   26.994   48.187
| 48> O  -22.586   26.394   46.375
| 49> C  -24.214   24.948   47.772
| 50> C  -25.342   25.227   46.772
| 51> C  -24.673   24.842   45.430
| 52> C  -23.765   23.649   45.820
| 53> O  -23.601   23.707   47.289
| 54> H  -24.552   24.762   48.793
| 55> H  -26.197   24.575   46.978
| 56> O  -25.832   26.701   46.799
| 57> H  -25.399   24.578   44.654
| 58> H  -24.072   25.679   45.056
| 59> H  -22.779   23.699   45.346
| 60> H  -24.222   22.683   45.585
| 61> H  -24.991   27.372   46.594
| 62> *
| 63> 
| 64>                          ****END OF INPUT****
================================================================================

                       *****************************
                       * Geometry Optimization Run *
                       *****************************

Geometry optimization settings:
Update method            Update   .... BFGS
Choice of coordinates    CoordSys .... Z-matrix Internals
Initial Hessian          InHess   .... Almoef's Model

Convergence Tolerances:
Energy Change            TolE     ....  5.0000e-06 Eh
Max. Gradient            TolMAXG  ....  3.0000e-04 Eh/bohr
RMS Gradient             TolRMSG  ....  1.0000e-04 Eh/bohr
Max. Displacement        TolMAXD  ....  4.0000e-03 bohr
RMS Displacement         TolRMSD  ....  2.0000e-03 bohr
Strict Convergence                ....  False
------------------------------------------------------------------------------
                        ORCA OPTIMIZATION COORDINATE SETUP
------------------------------------------------------------------------------

The optimization will be done in new redundant internal coordinates
Making redundant internal coordinates   ...  (new redundants) done
Evaluating the initial hessian          ...  (Almloef) done
Evaluating the coordinates              ...  done
Calculating the B-matrix                .... done
Calculating the G-matrix                .... done
Diagonalizing the G-matrix              .... done
Imposing constraints:
 Iter   0:  RMS(Cart)=    0.0002137219 RMS(Int)=    0.0000632491
 Iter   1:  RMS(Cart)=    0.0001071155 RMS(Int)=    0.0000342982
 Iter   2:  RMS(Cart)=    0.0000561335 RMS(Int)=    0.0000204862
 Iter   3:  RMS(Cart)=    0.0000310246 RMS(Int)=    0.0000133197
 Iter   4:  RMS(Cart)=    0.0000181425 RMS(Int)=    0.0000092267
 Iter   5:  RMS(Cart)=    0.0000111891 RMS(Int)=    0.0000067261
 Iter   6:  RMS(Cart)=    0.0000072249 RMS(Int)=    0.0000051590
 Iter   7:  RMS(Cart)=    0.0000048476 RMS(Int)=    0.0000041815
 Iter   8:  RMS(Cart)=    0.0000033621 RMS(Int)=    0.0000035804
 Iter   9:  RMS(Cart)=    0.0000024056 RMS(Int)=    0.0000032113
 Iter  10:  RMS(Cart)=    0.0000017777 RMS(Int)=    0.0000029776
 Iter  11:  RMS(Cart)=    0.0000013609 RMS(Int)=    0.0000028197
 Iter  12:  RMS(Cart)=    0.0000010827 RMS(Int)=    0.0000027032
 Iter  13:  RMS(Cart)=    0.0000008961 RMS(Int)=    0.0000026092
 Iter  14:  RMS(Cart)=    0.0000007700 RMS(Int)=    0.0000025279
 Iter  15:  RMS(Cart)=    0.0000006834 RMS(Int)=    0.0000024540
 Iter  16:  RMS(Cart)=    0.0000006223 RMS(Int)=    0.0000023848
 Iter  17:  RMS(Cart)=    0.0000005776 RMS(Int)=    0.0000023191
 Iter  18:  RMS(Cart)=    0.0000005437 RMS(Int)=    0.0000022560
 Iter  19:  RMS(Cart)=    0.0000005168 RMS(Int)=    0.0000021952
 Iter  20:  RMS(Cart)=    0.0000004945 RMS(Int)=    0.0000021363
 Iter  21:  RMS(Cart)=    0.0000004755 RMS(Int)=    0.0000020793
 Iter  22:  RMS(Cart)=    0.0000004587 RMS(Int)=    0.0000020241
 Iter  23:  RMS(Cart)=    0.0000004435 RMS(Int)=    0.0000019706
 Iter  24:  RMS(Cart)=    0.0000004296 RMS(Int)=    0.0000019187
 Iter  25:  RMS(Cart)=    0.0000004166 RMS(Int)=    0.0000018683
 Iter  26:  RMS(Cart)=    0.0000004044 RMS(Int)=    0.0000018195
 Iter  27:  RMS(Cart)=    0.0000003927 RMS(Int)=    0.0000017721
 Iter  28:  RMS(Cart)=    0.0000003816 RMS(Int)=    0.0000017261
 Iter  29:  RMS(Cart)=    0.0000003709 RMS(Int)=    0.0000016815
 Iter  30:  RMS(Cart)=    0.0000003606 RMS(Int)=    0.0000016382
 Iter  31:  RMS(Cart)=    0.0000003507 RMS(Int)=    0.0000015961
 Iter  32:  RMS(Cart)=    0.0000003412 RMS(Int)=    0.0000015553
 Iter  33:  RMS(Cart)=    0.0000003319 RMS(Int)=    0.0000015157
 Iter  34:  RMS(Cart)=    0.0000003229 RMS(Int)=    0.0000014773
 Iter  35:  RMS(Cart)=    0.0000003142 RMS(Int)=    0.0000014399
 Iter  36:  RMS(Cart)=    0.0000003058 RMS(Int)=    0.0000014037
 Iter  37:  RMS(Cart)=    0.0000002976 RMS(Int)=    0.0000013685
 Iter  38:  RMS(Cart)=    0.0000002897 RMS(Int)=    0.0000013343
 Iter  39:  RMS(Cart)=    0.0000002820 RMS(Int)=    0.0000013011
 Iter  40:  RMS(Cart)=    0.0000002745 RMS(Int)=    0.0000012688
 Iter  41:  RMS(Cart)=    0.0000002673 RMS(Int)=    0.0000012375
 Iter  42:  RMS(Cart)=    0.0000002602 RMS(Int)=    0.0000012070
 Iter  43:  RMS(Cart)=    0.0000002534 RMS(Int)=    0.0000011774
 Iter  44:  RMS(Cart)=    0.0000002468 RMS(Int)=    0.0000011487
 Iter  45:  RMS(Cart)=    0.0000002403 RMS(Int)=    0.0000011208
 Iter  46:  RMS(Cart)=    0.0000002340 RMS(Int)=    0.0000010936
 Iter  47:  RMS(Cart)=    0.0000002280 RMS(Int)=    0.0000010672
 Iter  48:  RMS(Cart)=    0.0000002221 RMS(Int)=    0.0000010416
 Iter  49:  RMS(Cart)=    0.0000002163 RMS(Int)=    0.0000010167
 Iter  50:  RMS(Cart)=    0.0000002107 RMS(Int)=    0.0000009924
 Iter  51:  RMS(Cart)=    0.0000002053 RMS(Int)=    0.0000009689
 Iter  52:  RMS(Cart)=    0.0000002001 RMS(Int)=    0.0000009460
 Iter  53:  RMS(Cart)=    0.0000001950 RMS(Int)=    0.0000009237
 Iter  54:  RMS(Cart)=    0.0000001900 RMS(Int)=    0.0000009020
 Iter  55:  RMS(Cart)=    0.0000001852 RMS(Int)=    0.0000008810
 Iter  56:  RMS(Cart)=    0.0000001805 RMS(Int)=    0.0000008605
 Iter  57:  RMS(Cart)=    0.0000001759 RMS(Int)=    0.0000008405
 Iter  58:  RMS(Cart)=    0.0000001715 RMS(Int)=    0.0000008211
 Iter  59:  RMS(Cart)=    0.0000001671 RMS(Int)=    0.0000008023
 Iter  60:  RMS(Cart)=    0.0000001629 RMS(Int)=    0.0000007839
 Iter  61:  RMS(Cart)=    0.0000001589 RMS(Int)=    0.0000007661
 Iter  62:  RMS(Cart)=    0.0000001549 RMS(Int)=    0.0000007487
 Iter  63:  RMS(Cart)=    0.0000001511 RMS(Int)=    0.0000007318
 Iter  64:  RMS(Cart)=    0.0000001473 RMS(Int)=    0.0000007153
 Iter  65:  RMS(Cart)=    0.0000001437 RMS(Int)=    0.0000006993
 Iter  66:  RMS(Cart)=    0.0000001401 RMS(Int)=    0.0000006837
 Iter  67:  RMS(Cart)=    0.0000001367 RMS(Int)=    0.0000006686
 Iter  68:  RMS(Cart)=    0.0000001333 RMS(Int)=    0.0000006538
 Iter  69:  RMS(Cart)=    0.0000001300 RMS(Int)=    0.0000006394
 Iter  70:  RMS(Cart)=    0.0000001269 RMS(Int)=    0.0000006254
 Iter  71:  RMS(Cart)=    0.0000001238 RMS(Int)=    0.0000006117
 Iter  72:  RMS(Cart)=    0.0000001208 RMS(Int)=    0.0000005985
 Iter  73:  RMS(Cart)=    0.0000001178 RMS(Int)=    0.0000005855
 Iter  74:  RMS(Cart)=    0.0000001150 RMS(Int)=    0.0000005729
 Iter  75:  RMS(Cart)=    0.0000001122 RMS(Int)=    0.0000005607
 Iter  76:  RMS(Cart)=    0.0000001095 RMS(Int)=    0.0000005487
 Iter  77:  RMS(Cart)=    0.0000001069 RMS(Int)=    0.0000005371
 Iter  78:  RMS(Cart)=    0.0000001043 RMS(Int)=    0.0000005257
 Iter  79:  RMS(Cart)=    0.0000001018 RMS(Int)=    0.0000005147
 Iter  80:  RMS(Cart)=    0.0000000994 RMS(Int)=    0.0000005039
 Iter  81:  RMS(Cart)=    0.0000000971 RMS(Int)=    0.0000004934
 Iter  82:  RMS(Cart)=    0.0000000948 RMS(Int)=    0.0000004832
 Iter  83:  RMS(Cart)=    0.0000000925 RMS(Int)=    0.0000004732
 Iter  84:  RMS(Cart)=    0.0000000904 RMS(Int)=    0.0000004635
 Iter  85:  RMS(Cart)=    0.0000000882 RMS(Int)=    0.0000004540
 Iter  86:  RMS(Cart)=    0.0000000862 RMS(Int)=    0.0000004448
 Iter  87:  RMS(Cart)=    0.0000000842 RMS(Int)=    0.0000004358
 Iter  88:  RMS(Cart)=    0.0000000822 RMS(Int)=    0.0000004270
 Iter  89:  RMS(Cart)=    0.0000000803 RMS(Int)=    0.0000004184
 Iter  90:  RMS(Cart)=    0.0000000784 RMS(Int)=    0.0000004101
 Iter  91:  RMS(Cart)=    0.0000000766 RMS(Int)=    0.0000004019
 Iter  92:  RMS(Cart)=    0.0000000749 RMS(Int)=    0.0000003940
 Iter  93:  RMS(Cart)=    0.0000000731 RMS(Int)=    0.0000003862
 Iter  94:  RMS(Cart)=    0.0000000715 RMS(Int)=    0.0000003787
 Iter  95:  RMS(Cart)=    0.0000000698 RMS(Int)=    0.0000003713
 Iter  96:  RMS(Cart)=    0.0000000682 RMS(Int)=    0.0000003641
 Iter  97:  RMS(Cart)=    0.0000000667 RMS(Int)=    0.0000003571
 Iter  98:  RMS(Cart)=    0.0000000652 RMS(Int)=    0.0000003502
 Iter  99:  RMS(Cart)=    0.0000000637 RMS(Int)=    0.0000003435
 RMS(Cart) too big - taking linear step, building new B-matrix and trying again
Imposing constraints:
 Iter   0:  RMS(Cart)=    0.0001071131 RMS(Int)=    0.0000342978
 Iter   1:  RMS(Cart)=    0.0000561320 RMS(Int)=    0.0000204854
 Iter   2:  RMS(Cart)=    0.0000310234 RMS(Int)=    0.0000133189
 Iter   3:  RMS(Cart)=    0.0000181416 RMS(Int)=    0.0000092259
 Iter   4:  RMS(Cart)=    0.0000111884 RMS(Int)=    0.0000067255
 Iter   5:  RMS(Cart)=    0.0000072244 RMS(Int)=    0.0000051585
 Iter   6:  RMS(Cart)=    0.0000048472 RMS(Int)=    0.0000041811
 Iter   7:  RMS(Cart)=    0.0000033618 RMS(Int)=    0.0000035801
 Iter   8:  RMS(Cart)=    0.0000024055 RMS(Int)=    0.0000032109
 Iter   9:  RMS(Cart)=    0.0000017776 RMS(Int)=    0.0000029772
 Iter  10:  RMS(Cart)=    0.0000013609 RMS(Int)=    0.0000028194
 Iter  11:  RMS(Cart)=    0.0000010827 RMS(Int)=    0.0000027028
 Iter  12:  RMS(Cart)=    0.0000008961 RMS(Int)=    0.0000026089
 Iter  13:  RMS(Cart)=    0.0000007700 RMS(Int)=    0.0000025275
 Iter  14:  RMS(Cart)=    0.0000006834 RMS(Int)=    0.0000024536
 Iter  15:  RMS(Cart)=    0.0000006223 RMS(Int)=    0.0000023845
 Iter  16:  RMS(Cart)=    0.0000005777 RMS(Int)=    0.0000023188
 Iter  17:  RMS(Cart)=    0.0000005437 RMS(Int)=    0.0000022557
 Iter  18:  RMS(Cart)=    0.0000005168 RMS(Int)=    0.0000021948
 Iter  19:  RMS(Cart)=    0.0000004945 RMS(Int)=    0.0000021360
 Iter  20:  RMS(Cart)=    0.0000004755 RMS(Int)=    0.0000020790
 Iter  21:  RMS(Cart)=    0.0000004587 RMS(Int)=    0.0000020238
 Iter  22:  RMS(Cart)=    0.0000004435 RMS(Int)=    0.0000019703
 Iter  23:  RMS(Cart)=    0.0000004296 RMS(Int)=    0.0000019184
 Iter  24:  RMS(Cart)=    0.0000004166 RMS(Int)=    0.0000018680
 Iter  25:  RMS(Cart)=    0.0000004043 RMS(Int)=    0.0000018192
 Iter  26:  RMS(Cart)=    0.0000003927 RMS(Int)=    0.0000017718
 Iter  27:  RMS(Cart)=    0.0000003816 RMS(Int)=    0.0000017258
 Iter  28:  RMS(Cart)=    0.0000003709 RMS(Int)=    0.0000016812
 Iter  29:  RMS(Cart)=    0.0000003606 RMS(Int)=    0.0000016379
 Iter  30:  RMS(Cart)=    0.0000003507 RMS(Int)=    0.0000015959
 Iter  31:  RMS(Cart)=    0.0000003411 RMS(Int)=    0.0000015551
 Iter  32:  RMS(Cart)=    0.0000003319 RMS(Int)=    0.0000015154
 Iter  33:  RMS(Cart)=    0.0000003229 RMS(Int)=    0.0000014770
 Iter  34:  RMS(Cart)=    0.0000003142 RMS(Int)=    0.0000014397
 Iter  35:  RMS(Cart)=    0.0000003058 RMS(Int)=    0.0000014034
 Iter  36:  RMS(Cart)=    0.0000002976 RMS(Int)=    0.0000013682
 Iter  37:  RMS(Cart)=    0.0000002897 RMS(Int)=    0.0000013340
 Iter  38:  RMS(Cart)=    0.0000002820 RMS(Int)=    0.0000013008
 Iter  39:  RMS(Cart)=    0.0000002745 RMS(Int)=    0.0000012685
 Iter  40:  RMS(Cart)=    0.0000002672 RMS(Int)=    0.0000012372
 Iter  41:  RMS(Cart)=    0.0000002602 RMS(Int)=    0.0000012068
 Iter  42:  RMS(Cart)=    0.0000002534 RMS(Int)=    0.0000011772
 Iter  43:  RMS(Cart)=    0.0000002467 RMS(Int)=    0.0000011484
 Iter  44:  RMS(Cart)=    0.0000002403 RMS(Int)=    0.0000011205
 Iter  45:  RMS(Cart)=    0.0000002340 RMS(Int)=    0.0000010934
 Iter  46:  RMS(Cart)=    0.0000002280 RMS(Int)=    0.0000010670
 Iter  47:  RMS(Cart)=    0.0000002220 RMS(Int)=    0.0000010414
 Iter  48:  RMS(Cart)=    0.0000002163 RMS(Int)=    0.0000010164
 Iter  49:  RMS(Cart)=    0.0000002107 RMS(Int)=    0.0000009922
CONVERGED
Small eigenvalue found = 8.257e-03
Small eigenvalue found = 1.247e-02
Small eigenvalue found = 1.491e-02
Small eigenvalue found = 2.299e-02
The first mode is                       ....   91
The number of degrees of freedom        ....   81
Storing new coordinates                 .... done

    -----------------------------------------------------------------
                    Redundant Internal Coordinates


    -----------------------------------------------------------------
         Definition                    Initial Value    Approx d2E/dq
    -----------------------------------------------------------------
      1. B(C   1,C   0)                  1.5333         0.369027   
      2. B(C   2,C   1)                  1.5471         0.350825   
      3. B(C   3,C   2)                  1.5492         0.348147   
      4. B(O   4,C   0)                  1.4668         0.422031   
      5. B(O   4,C   3)                  1.4789         0.403699   
      6. B(H   5,C   0)                  1.0919         0.357632   
      7. B(H   6,C   1)                  1.0958         0.352561   
      8. B(H   7,C   1)                  1.0951         0.353431   
      9. B(H   8,C   2)                  1.0945         0.354166   
     10. B(H   9,C   2)                  1.0966         0.351438   
     11. B(H  10,C   3)                  1.0954         0.353010   
     12. B(H  11,C   3)                  1.0939         0.354989   
     13. B(H  13,C  12)                  1.0981         0.349541   
     14. B(H  14,C  12)                  1.0976         0.350200   
     15. B(O  15,C   0)                  1.5525         0.307993   
     16. B(O  15,C  12)                  1.5530         0.307518   
     17. B(C  16,C  12)                  1.5541         0.341895   
     18. B(C  17,C  16)                  1.5330         0.369420   
     19. B(C  18,C  17)                  1.5481         0.349486   
     20. B(C  19,C  18)                  1.5491         0.348219   
     21. B(O  20,C  16)                  1.4660         0.423284   
     22. B(O  20,C  19)                  1.4793         0.403145   
     23. B(H  21,C  16)                  1.0915         0.358176   
     24. B(H  22,C  17)                  1.0948         0.353819   
     25. B(O  23,C  17)                  1.5535         0.306866   
     26. B(H  24,C  18)                  1.0950         0.353592   
     27. B(H  25,C  18)                  1.0962         0.351996   
     28. B(H  26,C  19)                  1.0952         0.353340   
     29. B(H  27,C  19)                  1.0942         0.354613   
     30. B(H  28,O  23)                  1.0952         0.316375   
     31. A(O   4,C   0,H   5)          107.0214         0.328541   
     32. A(C   1,C   0,O  15)          111.3021         0.348740   
     33. A(C   1,C   0,O   4)          104.2486         0.367935   
     34. A(O   4,C   0,O  15)          110.4734         0.354548   
     35. A(C   1,C   0,H   5)          114.4378         0.323302   
     36. A(H   5,C   0,O  15)          109.1576         0.312058   
     37. A(C   0,C   1,C   2)          101.6796         0.358729   
     38. A(C   2,C   1,H   7)          112.8319         0.320016   
     39. A(C   2,C   1,H   6)          110.6708         0.319888   
     40. A(C   0,C   1,H   6)          110.0677         0.322546   
     41. A(H   6,C   1,H   7)          108.3681         0.289027   
     42. A(C   0,C   1,H   7)          113.1243         0.322677   
     43. A(C   1,C   2,H   8)          112.8318         0.320125   
     44. A(C   1,C   2,C   3)          103.1268         0.355196   
     45. A(C   1,C   2,H   9)          110.0800         0.319721   
     46. A(C   3,C   2,H   9)          110.6152         0.319321   
     47. A(C   3,C   2,H   8)          112.4038         0.319725   
     48. A(H   8,C   2,H   9)          107.7728         0.288977   
     49. A(O   4,C   3,H  10)          109.1298         0.325449   
     50. A(C   2,C   3,H  10)          112.5253         0.319554   
     51. A(C   2,C   3,O   4)          106.5276         0.361529   
     52. A(O   4,C   3,H  11)          107.1237         0.325748   
     53. A(H  10,C   3,H  11)          108.8728         0.289284   
     54. A(C   2,C   3,H  11)          112.4566         0.319846   
     55. A(C   0,O   4,C   3)          108.3146         0.371320   
     56. A(H  14,C  12,C  16)          107.7145         0.318195   
     57. A(H  13,C  12,H  14)          108.2094         0.288223   
     58. A(H  13,C  12,O  15)          109.2753         0.310828   
     59. A(H  14,C  12,O  15)          110.4929         0.310922   
     60. A(O  15,C  12,C  16)          112.7402         0.344200   
     61. A(H  13,C  12,C  16)          108.2817         0.318098   
     62. A(C   0,O  15,C  12)          115.1707         0.336188   
     63. A(C  12,C  16,C  17)          111.2791         0.357224   
     64. A(C  12,C  16,O  20)          110.4882         0.363339   
     65. A(C  17,C  16,O  20)          104.2884         0.368190   
     66. A(C  12,C  16,H  21)          109.1144         0.319367   
     67. A(C  17,C  16,H  21)          114.4146         0.323439   
     68. A(O  20,C  16,H  21)          107.0646         0.328785   
     69. A(C  16,C  17,C  18)          101.6675         0.358560   
     70. A(C  16,C  17,H  22)          110.0907         0.322791   
     71. A(C  18,C  17,H  22)          110.6396         0.319874   
     72. A(C  16,C  17,O  23)          113.1667         0.348587   
     73. A(C  18,C  17,O  23)          112.7871         0.345349   
     74. A(H  22,C  17,O  23)          108.3887         0.311332   
     75. A(C  17,C  18,C  19)          103.0947         0.354978   
     76. A(C  17,C  18,H  24)          112.8161         0.319840   
     77. A(C  19,C  18,H  24)          112.4187         0.319651   
     78. A(C  17,C  18,H  25)          110.0468         0.319604   
     79. A(C  19,C  18,H  25)          110.6438         0.319415   
     80. A(H  24,C  18,H  25)          107.8072         0.288975   
     81. A(C  18,C  19,O  20)          106.5467         0.361457   
     82. A(C  18,C  19,H  26)          112.5562         0.319614   
     83. A(O  20,C  19,H  26)          109.1598         0.325425   
     84. A(C  18,C  19,H  27)          112.3965         0.319801   
     85. A(O  20,C  19,H  27)          107.1097         0.325617   
     86. A(H  26,C  19,H  27)          108.8678         0.289278   
     87. A(C  16,O  20,C  19)          108.3020         0.371422   
     88. A(C  17,O  23,H  28)          109.6235         0.303248   
     89. D(H   7,C   1,C   0,H   5)     82.1518         0.010890   
     90. D(C   2,C   1,C   0,O  15)     79.0869         0.010890   
     91. D(H   7,C   1,C   0,O  15)    -42.1868         0.010890   
     92. D(H   6,C   1,C   0,O   4)     77.3259         0.010890   
     93. D(H   6,C   1,C   0,O  15)   -163.5727         0.010890   
     94. D(H   6,C   1,C   0,H   5)    -39.2341         0.010890   
     95. D(H   7,C   1,C   0,O   4)   -161.2882         0.010890   
     96. D(C   2,C   1,C   0,O   4)    -40.0145         0.010890 C 
     97. D(C   2,C   1,C   0,H   5)   -156.5745         0.010890   
     98. D(H   9,C   2,C   1,H   6)    160.0776         0.009912   
     99. D(H   8,C   2,C   1,C   0)    156.5478         0.009912   
    100. D(H   8,C   2,C   1,H   6)     39.6446         0.009912   
    101. D(C   3,C   2,C   1,C   0)     35.0270         0.009912 C 
    102. D(H   8,C   2,C   1,H   7)    -81.9752         0.009912   
    103. D(H   9,C   2,C   1,C   0)    -83.0192         0.009912   
    104. D(C   3,C   2,C   1,H   6)    -81.8763         0.009912   
    105. D(H   9,C   2,C   1,H   7)     38.4578         0.009912   
    106. D(C   3,C   2,C   1,H   7)    156.5039         0.009912   
    107. D(H  11,C   3,C   2,H   9)   -143.4628         0.009774   
    108. D(O   4,C   3,C   2,H   8)   -140.0066         0.009774   
    109. D(O   4,C   3,C   2,H   9)     99.4739         0.009774   
    110. D(H  10,C   3,C   2,C   1)   -137.7432         0.009774   
    111. D(H  10,C   3,C   2,H   8)    100.4468         0.009774   
    112. D(H  10,C   3,C   2,H   9)    -20.0727         0.009774   
    113. D(H  11,C   3,C   2,C   1)     98.8667         0.009774   
    114. D(O   4,C   3,C   2,C   1)    -18.1967         0.009774 C 
    115. D(H  11,C   3,C   2,H   8)    -22.9433         0.009774   
    116. D(C   3,O   4,C   0,C   1)     29.5918         0.014035 C 
    117. D(C   3,O   4,C   0,H   5)    151.2016         0.014035   
    118. D(C   3,O   4,C   0,O  15)    -90.0713         0.014035   
    119. D(C   0,O   4,C   3,C   2)     -6.8732         0.012866 C 
    120. D(C   0,O   4,C   3,H  10)    114.8547         0.012866   
    121. D(C   0,O   4,C   3,H  11)   -127.4272         0.012866   
    122. D(C   0,O  15,C  12,C  16)   -120.0000         0.007772 C 
    123. D(C  12,O  15,C   0,O   4)      0.0000         0.007793 C 
    124. D(C  12,O  15,C   0,H   5)    117.4188         0.007793   
    125. D(C   0,O  15,C  12,H  14)    119.4123         0.007772   
    126. D(C   0,O  15,C  12,H  13)      0.4577         0.007772   
    127. D(C  12,O  15,C   0,C   1)   -115.3136         0.007793   
    128. D(C  17,C  16,C  12,H  13)   -176.3926         0.009455   
    129. D(H  21,C  16,C  12,H  14)    -60.3890         0.009455   
    130. D(C  17,C  16,C  12,O  15)    -55.3668         0.009455   
    131. D(O  20,C  16,C  12,H  13)    -61.0348         0.009455   
    132. D(O  20,C  16,C  12,H  14)   -177.8431         0.009455   
    133. D(O  20,C  16,C  12,O  15)     59.9910         0.009455 C 
    134. D(C  17,C  16,C  12,H  14)     66.7991         0.009455   
    135. D(H  21,C  16,C  12,H  13)     56.4193         0.009455   
    136. D(H  21,C  16,C  12,O  15)    177.4451         0.009455   
    137. D(C  18,C  17,C  16,C  12)     79.1039         0.010912   
    138. D(C  18,C  17,C  16,O  20)    -40.0267         0.010912 C 
    139. D(C  18,C  17,C  16,H  21)   -156.6526         0.010912   
    140. D(H  22,C  17,C  16,C  12)   -163.5879         0.010912   
    141. D(H  22,C  17,C  16,O  20)     77.2814         0.010912   
    142. D(H  22,C  17,C  16,H  21)    -39.3445         0.010912   
    143. D(O  23,C  17,C  16,C  12)    -42.1297         0.010912   
    144. D(O  23,C  17,C  16,O  20)   -161.2604         0.010912   
    145. D(O  23,C  17,C  16,H  21)     82.1138         0.010912   
    146. D(H  24,C  18,C  17,O  23)    -82.0021         0.009843   
    147. D(C  19,C  18,C  17,H  22)    -81.9200         0.009843   
    148. D(C  19,C  18,C  17,O  23)    156.4878         0.009843   
    149. D(H  24,C  18,C  17,C  16)    156.5002         0.009843   
    150. D(C  19,C  18,C  17,C  16)     34.9901         0.009843 C 
    151. D(H  24,C  18,C  17,H  22)     39.5901         0.009843   
    152. D(H  25,C  18,C  17,C  16)    -83.0567         0.009843   
    153. D(H  25,C  18,C  17,H  22)    160.0332         0.009843   
    154. D(H  25,C  18,C  17,O  23)     38.4410         0.009843   
    155. D(H  27,C  19,C  18,H  25)   -143.4985         0.009777   
    156. D(O  20,C  19,C  18,H  24)   -139.9303         0.009777   
    157. D(O  20,C  19,C  18,H  25)     99.4761         0.009777   
    158. D(H  26,C  19,C  18,C  17)   -137.7652         0.009777   
    159. D(H  26,C  19,C  18,H  24)    100.4560         0.009777   
    160. D(H  26,C  19,C  18,H  25)    -20.1375         0.009777   
    161. D(H  27,C  19,C  18,C  17)     98.8739         0.009777   
    162. D(O  20,C  19,C  18,C  17)    -18.1515         0.009777 C 
    163. D(H  27,C  19,C  18,H  24)    -22.9049         0.009777   
    164. D(C  19,O  20,C  16,C  12)    -90.0335         0.014118   
    165. D(C  19,O  20,C  16,C  17)     29.6328         0.014118 C 
    166. D(C  19,O  20,C  16,H  21)    151.2574         0.014118   
    167. D(C  16,O  20,C  19,C  18)     -6.9101         0.012831 C 
    168. D(C  16,O  20,C  19,H  26)    114.8831         0.012831   
    169. D(C  16,O  20,C  19,H  27)   -127.3966         0.012831   
    170. D(H  28,O  23,C  17,C  16)     57.6381         0.007743   
    171. D(H  28,O  23,C  17,C  18)    -57.0927         0.007743   
    172. D(H  28,O  23,C  17,H  22)   -179.9505         0.007743   
    -----------------------------------------------------------------

Number of atoms                         .... 29
Number of degrees of freedom            .... 172

Time needed for optimization step       :     1.20 sec

         *************************************************************
         *                GEOMETRY OPTIMIZATION CYCLE   1            *
         *************************************************************
---------------------------------
CARTESIAN COORDINATES (ANGSTROEM)
---------------------------------
  C    -21.047727   26.221842   46.251168
  C    -20.360997   27.557945   45.943984
  C    -20.329202   28.222191   47.340877
  C    -20.109987   27.022390   48.296076
  O    -20.472690   25.807193   47.535261
  H    -20.832522   25.427789   45.533288
  H    -19.343944   27.382101   45.576056
  H    -20.898094   28.156710   45.200865
  H    -19.543370   28.978375   47.433788
  H    -21.289316   28.710019   47.547754
  H    -20.733039   27.082400   49.195039
  H    -19.063976   26.913664   48.597138
  C    -23.171787   26.100561   47.783063
  H    -22.356772   25.821528   48.464031
  H    -23.665775   26.993544   48.187114
  O    -22.585765   26.393570   46.375074
  C    -24.214038   24.947789   47.771977
  C    -25.341979   25.227140   46.772002
  C    -24.673074   24.842128   45.429956
  C    -23.765345   23.648885   45.819838
  O    -23.601327   23.706702   47.288839
  H    -24.552087   24.761774   48.792958
  H    -26.197126   24.575314   46.977943
  O    -25.831644   26.701249   46.799147
  H    -25.399137   24.578369   44.653932
  H    -24.071888   25.679029   45.056036
  H    -22.779334   23.698708   45.345841
  H    -24.222565   22.683012   45.584745
  H    -24.990492   27.372078   46.594209

----------------------------
CARTESIAN COORDINATES (A.U.)
----------------------------
  NO LB      ZA    FRAG     MASS         X           Y           Z
   0 C     6.0000    0    12.011  -39.774440   49.552100   87.402040
   1 C     6.0000    0    12.011  -38.476708   52.076969   86.821548
   2 C     6.0000    0    12.011  -38.416625   53.332211   89.461292
   3 C     6.0000    0    12.011  -38.002368   51.064917   91.266357
   4 O     8.0000    0    15.999  -38.687778   48.768527   89.828626
   5 H     1.0000    0     1.008  -39.367762   48.051557   86.045444
   6 H     1.0000    0     1.008  -36.554757   51.744673   86.126263
   7 H     1.0000    0     1.008  -39.491675   53.208471   85.417256
   8 H     1.0000    0     1.008  -36.931616   54.761193   89.636868
   9 H     1.0000    0     1.008  -40.230977   54.254074   89.852234
  10 H     1.0000    0     1.008  -39.179765   51.178319   92.965152
  11 H     1.0000    0     1.008  -36.025695   50.859454   91.835282
  12 C     6.0000    0    12.011  -43.788331   49.322913   90.296902
  13 H     1.0000    0     1.008  -42.248176   48.795616   91.583746
  14 H     1.0000    0     1.008  -44.721834   51.010406   91.060449
  15 O     8.0000    0    15.999  -42.680910   49.876619   87.636188
  16 C     6.0000    0    12.011  -45.757900   47.144488   90.275954
  17 C     6.0000    0    12.011  -47.889401   47.672387   88.386275
  18 C     6.0000    0    12.011  -46.625353   46.944818   85.850174
  19 C     6.0000    0    12.011  -44.909993   44.689917   86.586946
  20 O     8.0000    0    15.999  -44.600044   44.799174   89.362955
  21 H     1.0000    0     1.008  -46.396721   46.792971   92.205328
  22 H     1.0000    0     1.008  -49.505393   46.440613   88.775447
  23 O     8.0000    0    15.999  -48.814733   50.458049   88.437572
  24 H     1.0000    0     1.008  -47.997413   46.446387   84.383702
  25 H     1.0000    0     1.008  -45.489275   48.526333   85.143568
  26 H     1.0000    0     1.008  -43.046703   44.784067   85.691221
  27 H     1.0000    0     1.008  -45.774014   42.864681   86.142684
  28 H     1.0000    0     1.008  -47.225186   51.725731   88.050295

--------------------------------
INTERNAL COORDINATES (ANGSTROEM)
--------------------------------
 C      0   0   0     0.000000000000     0.00000000     0.00000000
 C      1   0   0     1.533334275362     0.00000000     0.00000000
 C      2   1   0     1.547103422529   101.67907390     0.00000000
 C      3   2   1     1.549188819996   103.12737509    35.02687180
 O      1   2   3     1.466801281701   104.24948604   319.98542309
 H      1   2   3     1.091872245274   114.43876658   203.42640133
 H      2   1   3     1.095759553917   110.06782188   117.34000099
 H      2   1   3     1.095088580892   113.12442239   238.72597460
 H      3   2   1     1.094523183857   112.83161078   156.54780790
 H      3   2   1     1.096628013503   110.07982737   276.98070077
 H      4   3   2     1.095413164062   112.52534669   222.25678475
 H      4   3   2     1.093891219455   112.45670684    98.86663270
 C      1   2   3     2.621648527168   121.34625191    44.51218039
 H     13   1   2     1.098101543574    76.86899959   260.92449830
 H     13   1   2     1.097588720788   122.83245999     4.30151808
 O      1   2   3     1.552547583812   111.30349807    79.08752829
 C     13   1   2     1.554121616863   124.98131978   157.64604042
 C     17  13   1     1.533044356827   111.28011026   270.11467443
 C     18  17  13     1.548144050145   101.66704068    79.10453367
 C     19  18  17     1.549132983317   103.09517950    34.99005890
 O     17  13   1     1.465994201898   110.48794203    25.47380037
 H     17  13   1     1.091458198925   109.11346825   142.92583991
 H     18  17  13     1.094789934188   110.09079555   196.41233629
 O     18  17  13     1.553545943962   113.16682491   317.87062898
 H     19  18  17     1.094964839618   112.81597925   156.50018642
 H     19  18  17     1.096196150331   110.04671486   276.94316073
 H     20  19  18     1.095158436026   112.55622989   222.23483737
 H     20  19  18     1.094180058309   112.39656773    98.87387096
 H     24  18  17     1.095238330228   109.62349052    57.63799368

---------------------------
INTERNAL COORDINATES (A.U.)
---------------------------
 C      0   0   0     0.000000000000     0.00000000     0.00000000
 C      1   0   0     2.897581852189     0.00000000     0.00000000
 C      2   1   0     2.923601769431   101.67907390     0.00000000
 C      3   2   1     2.927542599525   103.12737509    35.02687180
 O      1   2   3     2.771852715300   104.24948604   319.98542309
 H      1   2   3     2.063339516798   114.43876658   203.42640133
 H      2   1   3     2.070685465531   110.06782188   117.34000099
 H      2   1   3     2.069417510270   113.12442239   238.72597460
 H      3   2   1     2.068349064717   112.83161078   156.54780790
 H      3   2   1     2.072326616307   110.07982737   276.98070077
 H      4   3   2     2.070030883569   112.52534669   222.25678475
 H      4   3   2     2.067154825070   112.45670684    98.86663270
 C      1   2   3     4.954197735745   121.34625191    44.51218039
 H     13   1   2     2.075111184591    76.86899959   260.92449830
 H     13   1   2     2.074142089969   122.83245999     4.30151808
 O      1   2   3     2.933889743286   111.30349807    79.08752829
 C     13   1   2     2.936864234677   124.98131978   157.64604042
 C     17  13   1     2.897033985557   111.28011026   270.11467443
 C     18  17  13     2.925568270634   101.66704068    79.10453367
 C     19  18  17     2.927437083493   103.09517950    34.99005890
 O     17  13   1     2.770327555505   110.48794203    25.47380037
 H     17  13   1     2.062557082591   109.11346825   142.92583991
 H     18  17  13     2.068853149790   110.09079555   196.41233629
 O     18  17  13     2.935776370552   113.16682491   317.87062898
 H     19  18  17     2.069183673151   112.81597925   156.50018642
 H     19  18  17     2.071510513184   110.04671486   276.94316073
 H     20  19  18     2.069549517344   112.55622989   222.23483737
 H     20  19  18     2.067700651401   112.39656773    98.87387096
 H     24  18  17     2.069700495504   109.62349052    57.63799368

---------------------
BASIS SET INFORMATION
---------------------
There are 3 groups of distinct atoms

 Group   1 Type C   : 10s4p contracted to 3s2p pattern {631/31}
 Group   2 Type O   : 10s4p contracted to 3s2p pattern {631/31}
 Group   3 Type H   : 4s contracted to 2s pattern {31}

Atom   0C    basis set group =>   1
Atom   1C    basis set group =>   1
Atom   2C    basis set group =>   1
Atom   3C    basis set group =>   1
Atom   4O    basis set group =>   2
Atom   5H    basis set group =>   3
Atom   6H    basis set group =>   3
Atom   7H    basis set group =>   3
Atom   8H    basis set group =>   3
Atom   9H    basis set group =>   3
Atom  10H    basis set group =>   3
Atom  11H    basis set group =>   3
Atom  12C    basis set group =>   1
Atom  13H    basis set group =>   3
Atom  14H    basis set group =>   3
Atom  15O    basis set group =>   2
Atom  16C    basis set group =>   1
Atom  17C    basis set group =>   1
Atom  18C    basis set group =>   1
Atom  19C    basis set group =>   1
Atom  20O    basis set group =>   2
Atom  21H    basis set group =>   3
Atom  22H    basis set group =>   3
Atom  23O    basis set group =>   2
Atom  24H    basis set group =>   3
Atom  25H    basis set group =>   3
Atom  26H    basis set group =>   3
Atom  27H    basis set group =>   3
Atom  28H    basis set group =>   3
------------------------------------------------------------------------------
                           ORCA GTO INTEGRAL CALCULATION
------------------------------------------------------------------------------

                         BASIS SET STATISTICS AND STARTUP INFO

 # of primitive gaussian shells          ...  246
 # of primitive gaussian functions       ...  350
 # of contracted shells                  ...   97
 # of contracted basis functions         ...  149
 Highest angular momentum                ...    1
 Maximum contraction depth               ...    6
 Integral package used                   ... LIBINT
 Integral threshhold            Thresh   ...  2.500e-11
 Primitive cut-off              TCut     ...  2.500e-12


------------------------------ INTEGRAL EVALUATION ----------------------------


 * One electron integrals 
 Pre-screening matrix                    ... done
 Shell pair data                         ... done (   0.002 sec)

-------------------------------------------------------------------------------
                                 ORCA SCF
-------------------------------------------------------------------------------

------------
SCF SETTINGS
------------
Hamiltonian:
 Density Functional     Method          .... DFT(GTOs)
 Exchange Functional    Exchange        .... B88
   X-Alpha parameter    XAlpha          ....  0.666667
   Becke's b parameter  XBeta           ....  0.004200
 Correlation Functional Correlation     .... LYP
 LDA part of GGA corr.  LDAOpt          .... VWN-5
 Gradients option       PostSCFGGA      .... off
 Hybrid DFT is turned on
   Fraction HF Exchange ScalHFX         ....  0.200000
   Scaling of DF-GGA-X  ScalDFX         ....  0.720000
   Scaling of DF-GGA-C  ScalDFC         ....  0.810000
   Scaling of DF-LDA-C  ScalLDAC        ....  1.000000
   Perturbative correction              ....  0.000000
   Density functional embedding theory  .... OFF
   NL short-range parameter             ....  4.800000


General Settings:
 Integral files         IntName         .... project_8049/ensemble_0_240
 Hartree-Fock type      HFTyp           .... RHF
 Total Charge           Charge          ....    0
 Multiplicity           Mult            ....    1
 Number of Electrons    NEL             ....  102
 Basis Dimension        Dim             ....  149
 Nuclear Repulsion      ENuc            ....    897.0124111404 Eh

Convergence Acceleration:
 DIIS                   CNVDIIS         .... on
   Start iteration      DIISMaxIt       ....    12
   Startup error        DIISStart       ....  0.200000
   # of expansion vecs  DIISMaxEq       ....     5
   Bias factor          DIISBfac        ....   1.050
   Max. coefficient     DIISMaxC        ....  10.000
 Newton-Raphson         CNVNR           .... off
 SOSCF                  CNVSOSCF        .... on
   Start iteration      SOSCFMaxIt      ....   150
   Startup grad/error   SOSCFStart      ....  0.003300
 Level Shifting         CNVShift        .... on
   Level shift para.    LevelShift      ....    0.2500
   Turn off err/grad.   ShiftErr        ....    0.0010
 Zerner damping         CNVZerner       .... off
 Static damping         CNVDamp         .... on
   Fraction old density DampFac         ....    0.7000
   Max. Damping (<1)    DampMax         ....    0.9800
   Min. Damping (>=0)   DampMin         ....    0.0000
   Turn off err/grad.   DampErr         ....    0.1000
 Fernandez-Rico         CNVRico         .... off

SCF Procedure:
 Maximum # iterations   MaxIter         ....   125
 SCF integral mode      SCFMode         .... Direct
   Integral package                     .... LIBINT
 Reset frequency        DirectResetFreq ....    20
 Integral Threshold     Thresh          ....  2.500e-11 Eh
 Primitive CutOff       TCut            ....  2.500e-12 Eh

Convergence Tolerance:
 Convergence Check Mode ConvCheckMode   .... Total+1el-Energy
 Convergence forced     ConvForced      .... 0
 Energy Change          TolE            ....  1.000e-08 Eh
 1-El. energy change                    ....  1.000e-05 Eh
 Orbital Gradient       TolG            ....  1.000e-05
 Orbital Rotation angle TolX            ....  1.000e-05
 DIIS Error             TolErr          ....  5.000e-07


Diagonalization of the overlap matrix:
Smallest eigenvalue                        ... 3.978e-03
Time for diagonalization                   ...    0.005 sec
Threshold for overlap eigenvalues          ... 1.000e-08
Number of eigenvalues below threshold      ... 0
Time for construction of square roots      ...    0.268 sec
Total time needed                          ...    0.273 sec

-------------------
DFT GRID GENERATION
-------------------

General Integration Accuracy     IntAcc      ...  4.340
Radial Grid Type                 RadialGrid  ... Gauss-Chebyshev
Angular Grid (max. acc.)         AngularGrid ... Lebedev-110
Angular grid pruning method      GridPruning ... 3 (G Style)
Weight generation scheme         WeightScheme... Becke
Basis function cutoff            BFCut       ...    1.0000e-11
Integration weight cutoff        WCut        ...    1.0000e-14
Grids for H and He will be reduced by one unit

# of grid points (after initial pruning)     ...  34472 (   0.0 sec)
# of grid points (after weights+screening)   ...  30873 (   0.3 sec)
nearest neighbour list constructed           ...    0.0 sec
Grid point re-assignment to atoms done       ...    0.0 sec
Grid point division into batches done        ...    0.0 sec
Reduced shell lists constructed in    0.6 sec

Total number of grid points                  ...    30873
Total number of batches                      ...      496
Average number of points per batch           ...       62
Average number of grid points per atom       ...     1065
Average number of shells per batch           ...    61.98 (63.89%)
Average number of basis functions per batch  ...   100.63 (67.54%)
Average number of large shells per batch     ...    43.85 (70.75%)
Average number of large basis fcns per batch ...    72.64 (72.18%)
Maximum spatial batch extension              ...  19.44, 20.10, 19.90 au
Average spatial batch extension              ...   3.24,  3.43,  3.43 au

Time for grid setup =    1.641 sec

------------------------------
INITIAL GUESS: MODEL POTENTIAL
------------------------------
Loading Hartree-Fock densities                     ... done
Calculating cut-offs                               ... done
Setting up the integral package                    ... done
Initializing the effective Hamiltonian             ... done
Starting the Coulomb interaction                   ... done (   0.6 sec)
Reading the grid                                   ... done
Mapping shells                                     ... done
Starting the XC term evaluation                    ... done (   0.5 sec)
  promolecular density results
     # of electrons  =    101.988128244
     EX              =    -83.671601935
     EC              =     -3.463752682
     EX+EC           =    -87.135354617
Transforming the Hamiltonian                       ... done (   0.0 sec)
Diagonalizing the Hamiltonian                      ... done (   0.0 sec)
Back transforming the eigenvectors                 ... done (   0.0 sec)
Now organizing SCF variables                       ... done
                      ------------------
                      INITIAL GUESS DONE (   3.0 sec)
                      ------------------
--------------
SCF ITERATIONS
--------------
ITER       Energy         Delta-E        Max-DP      RMS-DP      [F,P]     Damp
               ***  Starting incremental Fock matrix formation  ***
  0   -652.5392839705   0.000000000000 0.07575792  0.00295601  0.2330431 0.7000
  1   -652.6754493140  -0.136165343467 0.04396142  0.00204317  0.0946534 0.7000
                               ***Turning on DIIS***
  2   -652.7273287909  -0.051879476859 0.05891150  0.00332191  0.0300498 0.0000
  3   -652.8117946381  -0.084465847233 0.03067758  0.00135024  0.0520334 0.0000
  4   -652.8291963670  -0.017401728919 0.00919874  0.00041777  0.0100205 0.0000
  5   -652.8300718071  -0.000875440048 0.00287208  0.00013114  0.0041845 0.0000
                      *** Initiating the SOSCF procedure ***
                           *** Shutting down DIIS ***
                      *** Re-Reading the Fockian *** 
                      *** Removing any level shift *** 
ITER      Energy       Delta-E        Grad      Rot      Max-DP    RMS-DP
  6   -652.83015206  -0.0000802514  0.000186  0.000186  0.001033  0.000055
               *** Restarting incremental Fock matrix formation ***
  7   -652.83015507  -0.0000030066  0.000120  0.000168  0.000902  0.000026
  8   -652.83015398   0.0000010886  0.000196  0.000120  0.000503  0.000016
  9   -652.83015606  -0.0000020854  0.000024  0.000054  0.000164  0.000006
 10   -652.83015598   0.0000000772  0.000037  0.000031  0.000108  0.000004
 11   -652.83015611  -0.0000001279  0.000004  0.000005  0.000028  0.000001
 12   -652.83015611   0.0000000004  0.000006  0.000003  0.000017  0.000001
                  ***Gradient check signals convergence***
              ***Rediagonalizing the Fockian in SOSCF/NRSCF***

               *****************************************************
               *                     SUCCESS                       *
               *           SCF CONVERGED AFTER  13 CYCLES          *
               *****************************************************

Setting up the final grid:

General Integration Accuracy     IntAcc      ...  4.670
Radial Grid Type                 RadialGrid  ... Gauss-Chebyshev
Angular Grid (max. acc.)         AngularGrid ... Lebedev-302
Angular grid pruning method      GridPruning ... 3 (G Style)
Weight generation scheme         WeightScheme... Becke
Basis function cutoff            BFCut       ...    1.0000e-11
Integration weight cutoff        WCut        ...    1.0000e-14
Grids for H and He will be reduced by one unit

# of grid points (after initial pruning)     ... 135060 (   0.1 sec)
# of grid points (after weights+screening)   ... 118314 (   1.0 sec)
nearest neighbour list constructed           ...    0.0 sec
Grid point re-assignment to atoms done       ...    0.0 sec
Grid point division into batches done        ...    0.6 sec
Reduced shell lists constructed in    1.8 sec

Total number of grid points                  ...   118314
Total number of batches                      ...     1863
Average number of points per batch           ...       63
Average number of grid points per atom       ...     4080
Average number of shells per batch           ...    56.61 (58.36%)
Average number of basis functions per batch  ...    92.20 (61.88%)
Average number of large shells per batch     ...    39.04 (68.96%)
Average number of large basis fcns per batch ...    64.91 (70.40%)
Maximum spatial batch extension              ...  16.43, 20.58, 18.75 au
Average spatial batch extension              ...   2.15,  2.21,  2.22 au

Final grid set up in    5.0 sec
Final integration                            ... done (   2.9 sec)
Change in XC energy                          ...    -0.000736225
Integrated number of electrons               ...   101.999998159
Previous integrated no of electrons          ...   101.997992968

----------------
TOTAL SCF ENERGY
----------------

Total Energy       :         -652.83089234 Eh          -17764.43171 eV

Components:
Nuclear Repulsion  :          897.01241114 Eh           24408.94863 eV
Electronic Energy  :        -1549.84330348 Eh          -42173.38034 eV
One Electron Energy:        -2671.99448157 Eh          -72708.66628 eV
Two Electron Energy:         1122.15117809 Eh           30535.28594 eV

Virial components:
Potential Energy   :        -1301.80419133 Eh          -35423.89296 eV
Kinetic Energy     :          648.97329900 Eh           17659.46126 eV
Virial Ratio       :            2.00594415


DFT components:
N(Alpha)           :       50.999999079722 electrons
N(Beta)            :       50.999999079722 electrons
N(Total)           :      101.999998159443 electrons
E(X)               :      -67.598548109110 Eh       
E(C)               :       -4.074191087032 Eh       
E(XC)              :      -71.672739196142 Eh       
DFET-embed. en.    :        0.000000000000 Eh       

---------------
SCF CONVERGENCE
---------------

  Last Energy change         ...   -1.5447e-09  Tolerance :   1.0000e-08
  Last MAX-Density change    ...    2.7724e-06  Tolerance :   1.0000e-07
  Last RMS-Density change    ...    9.9169e-08  Tolerance :   5.0000e-09
  Last Orbital Gradient      ...    3.6004e-07  Tolerance :   1.0000e-05
  Last Orbital Rotation      ...    4.8804e-07  Tolerance :   1.0000e-05

             **** THE GBW FILE WAS UPDATED (project_8049/ensemble_0_240.gbw) ****
             **** DENSITY FILE WAS UPDATED (project_8049/ensemble_0_240.scfp) ****
             **** ENERGY FILE WAS UPDATED (project_8049/ensemble_0_240.en.tmp) ****
             **** THE GBW FILE WAS UPDATED (project_8049/ensemble_0_240.gbw) ****
             **** DENSITY FILE WAS UPDATED (project_8049/ensemble_0_240.scfp) ****
----------------
ORBITAL ENERGIES
----------------

  NO   OCC          E(Eh)            E(eV) 
   0   2.0000     -19.162147      -521.4285 
   1   2.0000     -19.151185      -521.1302 
   2   2.0000     -19.138548      -520.7864 
   3   2.0000     -19.129894      -520.5509 
   4   2.0000     -10.293411      -280.0979 
   5   2.0000     -10.238928      -278.6154 
   6   2.0000     -10.233734      -278.4741 
   7   2.0000     -10.231397      -278.4105 
   8   2.0000     -10.228830      -278.3406 
   9   2.0000     -10.216407      -278.0026 
  10   2.0000     -10.198780      -277.5229 
  11   2.0000     -10.198491      -277.5150 
  12   2.0000     -10.168040      -276.6864 
  13   2.0000      -1.050532       -28.5864 
  14   2.0000      -1.015271       -27.6269 
  15   2.0000      -0.968105       -26.3435 
  16   2.0000      -0.957362       -26.0512 
  17   2.0000      -0.798259       -21.7217 
  18   2.0000      -0.767810       -20.8932 
  19   2.0000      -0.757606       -20.6155 
  20   2.0000      -0.737650       -20.0725 
  21   2.0000      -0.669214       -18.2102 
  22   2.0000      -0.609695       -16.5906 
  23   2.0000      -0.599384       -16.3101 
  24   2.0000      -0.584925       -15.9166 
  25   2.0000      -0.558897       -15.2084 
  26   2.0000      -0.523894       -14.2559 
  27   2.0000      -0.507631       -13.8133 
  28   2.0000      -0.495166       -13.4742 
  29   2.0000      -0.475414       -12.9367 
  30   2.0000      -0.467441       -12.7197 
  31   2.0000      -0.452423       -12.3111 
  32   2.0000      -0.435087       -11.8393 
  33   2.0000      -0.425111       -11.5678 
  34   2.0000      -0.421636       -11.4733 
  35   2.0000      -0.402485       -10.9522 
  36   2.0000      -0.390099       -10.6151 
  37   2.0000      -0.384933       -10.4746 
  38   2.0000      -0.378523       -10.3001 
  39   2.0000      -0.371699       -10.1145 
  40   2.0000      -0.367127        -9.9900 
  41   2.0000      -0.356273        -9.6947 
  42   2.0000      -0.349364        -9.5067 
  43   2.0000      -0.333380        -9.0717 
  44   2.0000      -0.315816        -8.5938 
  45   2.0000      -0.307549        -8.3688 
  46   2.0000      -0.296000        -8.0546 
  47   2.0000      -0.271814        -7.3964 
  48   2.0000      -0.264335        -7.1929 
  49   2.0000      -0.254082        -6.9139 
  50   2.0000      -0.231584        -6.3017 
  51   0.0000       0.045533         1.2390 
  52   0.0000       0.059927         1.6307 
  53   0.0000       0.076529         2.0825 
  54   0.0000       0.094807         2.5798 
  55   0.0000       0.100151         2.7252 
  56   0.0000       0.103103         2.8056 
  57   0.0000       0.106580         2.9002 
  58   0.0000       0.122098         3.3224 
  59   0.0000       0.127902         3.4804 
  60   0.0000       0.140489         3.8229 
  61   0.0000       0.143763         3.9120 
  62   0.0000       0.146889         3.9970 
  63   0.0000       0.153942         4.1890 
  64   0.0000       0.159674         4.3450 
  65   0.0000       0.167791         4.5658 
  66   0.0000       0.182306         4.9608 
  67   0.0000       0.186526         5.0756 
  68   0.0000       0.191322         5.2061 
  69   0.0000       0.201771         5.4905 
  70   0.0000       0.208455         5.6724 
  71   0.0000       0.214234         5.8296 
  72   0.0000       0.222462         6.0535 
  73   0.0000       0.235250         6.4015 
  74   0.0000       0.244451         6.6518 
  75   0.0000       0.253157         6.8888 
  76   0.0000       0.265479         7.2241 
  77   0.0000       0.276664         7.5284 
  78   0.0000       0.280377         7.6295 
  79   0.0000       0.293218         7.9789 
  80   0.0000       0.311551         8.4777 
  81   0.0000       0.506456        13.7814 
  82   0.0000       0.521716        14.1966 
  83   0.0000       0.544944        14.8287 
  84   0.0000       0.550302        14.9745 
  85   0.0000       0.563128        15.3235 
  86   0.0000       0.564793        15.3688 
  87   0.0000       0.576301        15.6819 
  88   0.0000       0.589238        16.0340 
  89   0.0000       0.594573        16.1791 
  90   0.0000       0.598729        16.2922 
  91   0.0000       0.608201        16.5500 
  92   0.0000       0.611653        16.6439 
  93   0.0000       0.633305        17.2331 
  94   0.0000       0.649320        17.6689 
  95   0.0000       0.660749        17.9799 
  96   0.0000       0.666573        18.1384 
  97   0.0000       0.672838        18.3088 
  98   0.0000       0.685032        18.6407 
  99   0.0000       0.715123        19.4595 
 100   0.0000       0.738638        20.0994 
 101   0.0000       0.761076        20.7099 
 102   0.0000       0.793047        21.5799 
 103   0.0000       0.798304        21.7230 
 104   0.0000       0.815344        22.1866 
 105   0.0000       0.821249        22.3473 
 106   0.0000       0.835993        22.7485 
 107   0.0000       0.857494        23.3336 
 108   0.0000       0.870917        23.6989 
 109   0.0000       0.876024        23.8378 
 110   0.0000       0.880682        23.9646 
 111   0.0000       0.890857        24.2414 
 112   0.0000       0.900688        24.5090 
 113   0.0000       0.913421        24.8554 
 114   0.0000       0.922371        25.0990 
 115   0.0000       0.927271        25.2323 
 116   0.0000       0.942459        25.6456 
 117   0.0000       0.947562        25.7845 
 118   0.0000       0.964916        26.2567 
 119   0.0000       0.966403        26.2972 
 120   0.0000       0.982910        26.7463 
 121   0.0000       0.998211        27.1627 
 122   0.0000       1.015031        27.6204 
 123   0.0000       1.029870        28.0242 
 124   0.0000       1.047884        28.5144 
 125   0.0000       1.076198        29.2848 
 126   0.0000       1.090672        29.6787 
 127   0.0000       1.103948        30.0400 
 128   0.0000       1.129312        30.7301 
 129   0.0000       1.165416        31.7126 
 130   0.0000       1.183865        32.2146 
 131   0.0000       1.240032        33.7430 
 132   0.0000       1.278966        34.8024 
 133   0.0000       1.303781        35.4777 
 134   0.0000       1.360858        37.0308 
 135   0.0000       1.385353        37.6974 
 136   0.0000       1.402989        38.1773 
 137   0.0000       1.425461        38.7888 
 138   0.0000       1.455688        39.6113 
 139   0.0000       1.462471        39.7959 
 140   0.0000       1.485178        40.4138 
 141   0.0000       1.536348        41.8061 
 142   0.0000       1.645977        44.7893 
 143   0.0000       1.682325        45.7784 
 144   0.0000       1.739830        47.3432 
 145   0.0000       1.883243        51.2456 
 146   0.0000       1.961395        53.3723 
 147   0.0000       2.052007        55.8379 
 148   0.0000       2.121435        57.7272 

                    ********************************
                    * MULLIKEN POPULATION ANALYSIS *
                    ********************************

-----------------------
MULLIKEN ATOMIC CHARGES
-----------------------
   0 C :    0.294978
   1 C :   -0.262985
   2 C :   -0.300638
   3 C :   -0.020302
   4 O :   -0.498489
   5 H :    0.164839
   6 H :    0.152176
   7 H :    0.161012
   8 H :    0.149308
   9 H :    0.157492
  10 H :    0.143822
  11 H :    0.153116
  12 C :   -0.068906
  13 H :    0.193266
  14 H :    0.131053
  15 O :   -0.543087
  16 C :    0.079534
  17 C :    0.089581
  18 C :   -0.303178
  19 C :   -0.003082
  20 O :   -0.514113
  21 H :    0.150517
  22 H :    0.157560
  23 O :   -0.607283
  24 H :    0.135097
  25 H :    0.182344
  26 H :    0.137147
  27 H :    0.135514
  28 H :    0.353706
Sum of atomic charges:   -0.0000000

--------------------------------
MULLIKEN REDUCED ORBITAL CHARGES
--------------------------------
  0 C s       :     3.237520  s :     3.237520
      pz      :     0.790159  p :     2.467501
      px      :     0.679767
      py      :     0.997576
  1 C s       :     3.306228  s :     3.306228
      pz      :     0.979437  p :     2.956757
      px      :     1.032545
      py      :     0.944775
  2 C s       :     3.316814  s :     3.316814
      pz      :     0.909341  p :     2.983824
      px      :     1.086734
      py      :     0.987749
  3 C s       :     3.266309  s :     3.266309
      pz      :     0.936013  p :     2.753993
      px      :     1.075112
      py      :     0.742867
  4 O s       :     3.947069  s :     3.947069
      pz      :     1.314030  p :     4.551419
      px      :     1.725020
      py      :     1.512369
  5 H s       :     0.835161  s :     0.835161
  6 H s       :     0.847824  s :     0.847824
  7 H s       :     0.838988  s :     0.838988
  8 H s       :     0.850692  s :     0.850692
  9 H s       :     0.842508  s :     0.842508
 10 H s       :     0.856178  s :     0.856178
 11 H s       :     0.846884  s :     0.846884
 12 C s       :     3.300675  s :     3.300675
      pz      :     0.759858  p :     2.768232
      px      :     1.012344
      py      :     0.996029
 13 H s       :     0.806734  s :     0.806734
 14 H s       :     0.868947  s :     0.868947
 15 O s       :     3.944013  s :     3.944013
      pz      :     1.433658  p :     4.599074
      px      :     1.303730
      py      :     1.861686
 16 C s       :     3.263561  s :     3.263561
      pz      :     1.015460  p :     2.656905
      px      :     0.901699
      py      :     0.739747
 17 C s       :     3.284577  s :     3.284577
      pz      :     0.931765  p :     2.625842
      px      :     0.963078
      py      :     0.730999
 18 C s       :     3.317081  s :     3.317081
      pz      :     0.976793  p :     2.986097
      px      :     1.001484
      py      :     1.007820
 19 C s       :     3.262131  s :     3.262131
      pz      :     0.679579  p :     2.740951
      px      :     1.048394
      py      :     1.012978
 20 O s       :     3.944624  s :     3.944624
      pz      :     1.292567  p :     4.569490
      px      :     1.782304
      py      :     1.494619
 21 H s       :     0.849483  s :     0.849483
 22 H s       :     0.842440  s :     0.842440
 23 O s       :     3.951891  s :     3.951891
      pz      :     1.909982  p :     4.655392
      px      :     1.529423
      py      :     1.215987
 24 H s       :     0.864903  s :     0.864903
 25 H s       :     0.817656  s :     0.817656
 26 H s       :     0.862853  s :     0.862853
 27 H s       :     0.864486  s :     0.864486
 28 H s       :     0.646294  s :     0.646294


                     *******************************
                     * LOEWDIN POPULATION ANALYSIS *
                     *******************************

----------------------
LOEWDIN ATOMIC CHARGES
----------------------
   0 C :    0.193706
   1 C :   -0.220420
   2 C :   -0.217949
   3 C :   -0.035225
   4 O :   -0.305689
   5 H :    0.112672
   6 H :    0.118210
   7 H :    0.126482
   8 H :    0.118046
   9 H :    0.115742
  10 H :    0.101378
  11 H :    0.108474
  12 C :   -0.063527
  13 H :    0.131479
  14 H :    0.098852
  15 O :   -0.372673
  16 C :    0.021514
  17 C :    0.044506
  18 C :   -0.242885
  19 C :   -0.025705
  20 O :   -0.322055
  21 H :    0.117743
  22 H :    0.118235
  23 O :   -0.444874
  24 H :    0.109873
  25 H :    0.131431
  26 H :    0.098864
  27 H :    0.097615
  28 H :    0.286180

-------------------------------
LOEWDIN REDUCED ORBITAL CHARGES
-------------------------------
  0 C s       :     2.981919  s :     2.981919
      pz      :     0.913235  p :     2.824375
      px      :     0.825942
      py      :     1.085199
  1 C s       :     2.979870  s :     2.979870
      pz      :     1.075283  p :     3.240550
      px      :     1.107959
      py      :     1.057308
  2 C s       :     2.973044  s :     2.973044
      pz      :     1.032789  p :     3.244905
      px      :     1.132756
      py      :     1.079360
  3 C s       :     2.984905  s :     2.984905
      pz      :     1.037334  p :     3.050319
      px      :     1.126327
      py      :     0.886659
  4 O s       :     3.608427  s :     3.608427
      pz      :     1.378621  p :     4.697263
      px      :     1.755587
      py      :     1.563055
  5 H s       :     0.887328  s :     0.887328
  6 H s       :     0.881790  s :     0.881790
  7 H s       :     0.873518  s :     0.873518
  8 H s       :     0.881954  s :     0.881954
  9 H s       :     0.884258  s :     0.884258
 10 H s       :     0.898622  s :     0.898622
 11 H s       :     0.891526  s :     0.891526
 12 C s       :     3.007771  s :     3.007771
      pz      :     0.869116  p :     3.055757
      px      :     1.086446
      py      :     1.100195
 13 H s       :     0.868521  s :     0.868521
 14 H s       :     0.901148  s :     0.901148
 15 O s       :     3.649148  s :     3.649148
      pz      :     1.482544  p :     4.723525
      px      :     1.364051
      py      :     1.876930
 16 C s       :     2.966554  s :     2.966554
      pz      :     1.086390  p :     3.011931
      px      :     1.023498
      py      :     0.902043
 17 C s       :     2.972484  s :     2.972484
      pz      :     1.061154  p :     2.983011
      px      :     1.072385
      py      :     0.849472
 18 C s       :     2.983347  s :     2.983347
      pz      :     1.074717  p :     3.259538
      px      :     1.088221
      py      :     1.096600
 19 C s       :     2.981858  s :     2.981858
      pz      :     0.825775  p :     3.043847
      px      :     1.114208
      py      :     1.103864
 20 O s       :     3.601054  s :     3.601054
      pz      :     1.359031  p :     4.721001
      px      :     1.809618
      py      :     1.552352
 21 H s       :     0.882257  s :     0.882257
 22 H s       :     0.881765  s :     0.881765
 23 O s       :     3.690869  s :     3.690869
      pz      :     1.918875  p :     4.754004
      px      :     1.561616
      py      :     1.273514
 24 H s       :     0.890127  s :     0.890127
 25 H s       :     0.868569  s :     0.868569
 26 H s       :     0.901136  s :     0.901136
 27 H s       :     0.902385  s :     0.902385
 28 H s       :     0.713820  s :     0.713820


                      *****************************
                      * MAYER POPULATION ANALYSIS *
                      *****************************

  NA   - Mulliken gross atomic population
  ZA   - Total nuclear charge
  QA   - Mulliken gross atomic charge
  VA   - Mayer's total valence
  BVA  - Mayer's bonded valence
  FA   - Mayer's free valence

  ATOM       NA         ZA         QA         VA         BVA        FA
  0 C      5.7050     6.0000     0.2950     3.6239     3.6239    -0.0000
  1 C      6.2630     6.0000    -0.2630     3.7119     3.7119    -0.0000
  2 C      6.3006     6.0000    -0.3006     3.7585     3.7585    -0.0000
  3 C      6.0203     6.0000    -0.0203     3.6490     3.6490     0.0000
  4 O      8.4985     8.0000    -0.4985     1.8273     1.8273     0.0000
  5 H      0.8352     1.0000     0.1648     0.9269     0.9269    -0.0000
  6 H      0.8478     1.0000     0.1522     0.9307     0.9307    -0.0000
  7 H      0.8390     1.0000     0.1610     0.9372     0.9372    -0.0000
  8 H      0.8507     1.0000     0.1493     0.9363     0.9363    -0.0000
  9 H      0.8425     1.0000     0.1575     0.9344     0.9344     0.0000
 10 H      0.8562     1.0000     0.1438     0.9293     0.9293     0.0000
 11 H      0.8469     1.0000     0.1531     0.9290     0.9290    -0.0000
 12 C      6.0689     6.0000    -0.0689     3.6013     3.6013    -0.0000
 13 H      0.8067     1.0000     0.1933     0.9325     0.9325    -0.0000
 14 H      0.8689     1.0000     0.1311     0.9370     0.9370     0.0000
 15 O      8.5431     8.0000    -0.5431     1.7797     1.7797    -0.0000
 16 C      5.9205     6.0000     0.0795     3.5872     3.5872     0.0000
 17 C      5.9104     6.0000     0.0896     3.6559     3.6559     0.0000
 18 C      6.3032     6.0000    -0.3032     3.6991     3.6991    -0.0000
 19 C      6.0031     6.0000    -0.0031     3.6620     3.6620    -0.0000
 20 O      8.5141     8.0000    -0.5141     1.7742     1.7742    -0.0000
 21 H      0.8495     1.0000     0.1505     0.9335     0.9335     0.0000
 22 H      0.8424     1.0000     0.1576     0.9303     0.9303    -0.0000
 23 O      8.6073     8.0000    -0.6073     1.7612     1.7612     0.0000
 24 H      0.8649     1.0000     0.1351     0.9368     0.9368    -0.0000
 25 H      0.8177     1.0000     0.1823     0.9518     0.9518    -0.0000
 26 H      0.8629     1.0000     0.1371     0.9294     0.9294     0.0000
 27 H      0.8645     1.0000     0.1355     0.9280     0.9280    -0.0000
 28 H      0.6463     1.0000     0.3537     0.8494     0.8494    -0.0000

  Mayer bond orders larger than 0.100000
B(  0-C ,  1-C ) :   0.9309 B(  0-C ,  4-O ) :   0.9118 B(  0-C ,  5-H ) :   0.9233 
B(  0-C , 15-O ) :   0.8157 B(  1-C ,  2-C ) :   0.9533 B(  1-C ,  6-H ) :   0.9314 
B(  1-C ,  7-H ) :   0.9342 B(  2-C ,  3-C ) :   0.9497 B(  2-C ,  8-H ) :   0.9444 
B(  2-C ,  9-H ) :   0.9450 B(  3-C ,  4-O ) :   0.8308 B(  3-C , 10-H ) :   0.9289 
B(  3-C , 11-H ) :   0.9403 B( 12-C , 13-H ) :   0.8937 B( 12-C , 14-H ) :   0.9081 
B( 12-C , 15-O ) :   0.8506 B( 12-C , 16-C ) :   0.8950 B( 16-C , 17-C ) :   0.8954 
B( 16-C , 20-O ) :   0.8798 B( 16-C , 21-H ) :   0.9261 B( 17-C , 18-C ) :   0.9293 
B( 17-C , 22-H ) :   0.9361 B( 17-C , 23-O ) :   0.8897 B( 18-C , 19-C ) :   0.9379 
B( 18-C , 24-H ) :   0.9414 B( 18-C , 25-H ) :   0.9170 B( 19-C , 20-O ) :   0.8381 
B( 19-C , 26-H ) :   0.9309 B( 19-C , 27-H ) :   0.9381 B( 23-O , 28-H ) :   0.7954 


-------
TIMINGS
-------

Total SCF time: 0 days 0 hours 3 min 51 sec 

Total time                  ....     231.371 sec
Sum of individual times     ....     196.203 sec  ( 84.8%)

Fock matrix formation       ....     184.545 sec  ( 79.8%)
  XC integration            ....      57.334 sec  ( 31.1% of F)
    Basis function eval.    ....       4.159 sec  (  7.3% of XC)
    Density eval.           ....       3.138 sec  (  5.5% of XC)
    XC-Functional eval.     ....       2.036 sec  (  3.6% of XC)
    XC-Potential eval.      ....       1.952 sec  (  3.4% of XC)
Diagonalization             ....       0.658 sec  (  0.3%)
Density matrix formation    ....       0.011 sec  (  0.0%)
Population analysis         ....       0.201 sec  (  0.1%)
Initial guess               ....       1.356 sec  (  0.6%)
Orbital Transformation      ....       0.000 sec  (  0.0%)
Orbital Orthonormalization  ....       0.000 sec  (  0.0%)
DIIS solution               ....       0.827 sec  (  0.4%)
SOSCF solution              ....       1.945 sec  (  0.8%)
Grid generation             ....       6.659 sec  (  2.9%)

-------------------------   --------------------
FINAL SINGLE POINT ENERGY      -652.830892338660
-------------------------   --------------------

------------------------------------------------------------------------------
                         ORCA SCF GRADIENT CALCULATION
------------------------------------------------------------------------------

Gradient of the Kohn-Sham DFT energy:
Kohn-Sham wavefunction type      ... RKS
Hartree-Fock exchange scaling    ...    0.200
Number of operators              ...    1
Number of atoms                  ...   29
Basis set dimensions             ...  149
Integral neglect threshold       ... 2.5e-11
Integral primitive cutoff        ... 2.5e-12

Nuclear repulsion gradient       ... done
One Electron Gradient            ... done
Pre-screening matrix             ... done
Starting the two electron gradient:
Two electron gradient done
Exchange-correlation gradient    ... done

------------------
CARTESIAN GRADIENT
------------------

   1   C   :    0.008923202    0.003281667   -0.019920299
   2   C   :    0.011554070   -0.003376562   -0.003607529
   3   C   :   -0.000253635   -0.000259055   -0.001679559
   4   C   :   -0.005209855   -0.007111523   -0.002226454
   5   O   :    0.004043011   -0.005284573    0.017172836
   6   H   :    0.007991087    0.001136563   -0.002046199
   7   H   :    0.000447421    0.002957638    0.000304258
   8   H   :    0.000621257    0.002183005   -0.001118126
   9   H   :   -0.000349210    0.000781022   -0.000022044
  10   H   :   -0.000789634    0.000764466    0.000945868
  11   H   :   -0.000607006    0.000770011    0.000651684
  12   H   :    0.000255590    0.001105446    0.000526333
  13   C   :   -0.007070012    0.009639318    0.003880423
  14   H   :    0.003242461    0.000747354    0.008307643
  15   H   :   -0.003625178   -0.004149631    0.007849924
  16   O   :   -0.018972437    0.000935926   -0.031181604
  17   C   :   -0.016901092   -0.010719943    0.012003004
  18   C   :   -0.004394506   -0.034442179    0.011169133
  19   C   :    0.004491312    0.004798488    0.006846653
  20   C   :    0.002209611   -0.002297400    0.005017339
  21   O   :    0.002928741   -0.002626275   -0.002840796
  22   H   :    0.000383810   -0.001249759   -0.001361112
  23   H   :    0.005401814   -0.011234049   -0.000659848
  24   O   :   -0.049983221   -0.001779514    0.007798426
  25   H   :    0.002018280    0.001751136   -0.002290807
  26   H   :    0.003494147    0.003699363   -0.003792742
  27   H   :    0.000736336   -0.000116623   -0.000687101
  28   H   :    0.000106983    0.000738330   -0.000305799
  29   H   :    0.049306652    0.049357351   -0.008733505

Difference to translation invariance:
           :    0.0000000001   -0.0000000001   -0.0000000001

Norm of the cartesian gradient     ...    0.1121033310
RMS gradient                       ...    0.0120187386
MAX gradient                       ...    0.0499832210

-------
TIMINGS
-------

Total SCF gradient time            ...       31.593 sec

One electron gradient       ....       0.549 sec  (  1.7%)
Prescreening matrices       ....       0.070 sec  (  0.2%)
Two electron gradient       ....      19.895 sec  ( 63.0%)
XC gradient                 ....      10.591 sec  ( 33.5%)
------------------------------------------------------------------------------
                         ORCA GEOMETRY RELAXATION STEP
------------------------------------------------------------------------------

Reading the OPT-File                    .... done
Getting information on internals        .... done
Copying old internal coords+grads       .... done
Making the new internal coordinates     .... (new redundants).... done
Validating the new internal coordinates .... (new redundants).... done
Calculating the B-matrix                .... done
Calculating the G,G- and P matrices     .... done
Transforming gradient to internals      .... done
Projecting the internal gradient        .... done
Number of atoms                         ....  29
Number of internal coordinates          .... 172
Current Energy                          ....  -652.830892339 Eh
Current gradient norm                   ....     0.112103331 Eh/bohr
Maximum allowed component of the step   ....  0.300
Current trust radius                    ....  0.300
Evaluating the initial hessian          ....  (Almloef) done
Projecting the Hessian                  .... done
Forming the augmented Hessian           .... done
Diagonalizing the augmented Hessian     .... done
Last element of RFO vector              ....  0.920884749
Lowest eigenvalues of augmented Hessian:
 -0.042881341  0.008014081  0.033059573  0.033225663  0.037172409
Length of the computed step             ....  0.423326522
Warning: the length of the step is outside the trust region - taking restricted step instead
The input lambda is                     ....    -0.042881
   iter:   1  x=   -0.083608  g=    2.190348 f(x)=     0.089205
   iter:   2  x=   -0.115246  g=    0.967350 f(x)=     0.030605
   iter:   3  x=   -0.124558  g=    0.632854 f(x)=     0.005893
   iter:   4  x=   -0.125097  g=    0.568748 f(x)=     0.000307
   iter:   5  x=   -0.125099  g=    0.565350 f(x)=     0.000001
   iter:   6  x=   -0.125099  g=    0.565340 f(x)=     0.000000
   iter:   7  x=   -0.125099  g=    0.565340 f(x)=     0.000000
The output lambda is                    ....    -0.125099 (7 iterations)
The final length of the internal step   ....  0.300000000
Converting the step to cartesian space:
 Initial RMS(Int)=    0.0228747855
Transforming coordinates:
 Iter   0:  RMS(Cart)=    0.1078881294 RMS(Int)=    0.0226544135
 Iter   1:  RMS(Cart)=    0.0036375058 RMS(Int)=    0.0015172872
 Iter   2:  RMS(Cart)=    0.0002235072 RMS(Int)=    0.0001104405
 Iter   3:  RMS(Cart)=    0.0000155696 RMS(Int)=    0.0000062597
 Iter   4:  RMS(Cart)=    0.0000012846 RMS(Int)=    0.0000007431
 Iter   5:  RMS(Cart)=    0.0000000930 RMS(Int)=    0.0000000523
Imposing constraints:
 Iter   0:  RMS(Cart)=    0.0000919482 RMS(Int)=    0.0000945944
 Iter   1:  RMS(Cart)=    0.0000605878 RMS(Int)=    0.0000772095
 Iter   2:  RMS(Cart)=    0.0000438713 RMS(Int)=    0.0000680286
 Iter   3:  RMS(Cart)=    0.0000329750 RMS(Int)=    0.0000627277
 Iter   4:  RMS(Cart)=    0.0000253515 RMS(Int)=    0.0000593485
 Iter   5:  RMS(Cart)=    0.0000199995 RMS(Int)=    0.0000569439
 Iter   6:  RMS(Cart)=    0.0000162986 RMS(Int)=    0.0000550446
[...]
  29   2.0000      -0.488520       -13.2933 
  30   2.0000      -0.471186       -12.8216 
  31   2.0000      -0.461652       -12.5622 
  32   2.0000      -0.437427       -11.9030 
  33   2.0000      -0.430231       -11.7072 
  34   2.0000      -0.423090       -11.5129 
  35   2.0000      -0.414656       -11.2834 
  36   2.0000      -0.399687       -10.8760 
  37   2.0000      -0.389208       -10.5909 
  38   2.0000      -0.377291       -10.2666 
  39   2.0000      -0.373951       -10.1757 
  40   2.0000      -0.364980        -9.9316 
  41   2.0000      -0.356046        -9.6885 
  42   2.0000      -0.346811        -9.4372 
  43   2.0000      -0.333562        -9.0767 
  44   2.0000      -0.321046        -8.7361 
  45   2.0000      -0.307797        -8.3756 
  46   2.0000      -0.300257        -8.1704 
  47   2.0000      -0.271333        -7.3834 
  48   2.0000      -0.262889        -7.1536 
  49   2.0000      -0.255244        -6.9455 
  50   2.0000      -0.230866        -6.2822 
  51   0.0000       0.066766         1.8168 
  52   0.0000       0.083085         2.2608 
  53   0.0000       0.091371         2.4863 
  54   0.0000       0.098376         2.6770 
  55   0.0000       0.104016         2.8304 
  56   0.0000       0.108863         2.9623 
  57   0.0000       0.109603         2.9825 
  58   0.0000       0.128845         3.5060 
  59   0.0000       0.136148         3.7048 
  60   0.0000       0.142889         3.8882 
  61   0.0000       0.149614         4.0712 
  62   0.0000       0.154772         4.2116 
  63   0.0000       0.161161         4.3854 
  64   0.0000       0.163694         4.4543 
  65   0.0000       0.176880         4.8131 
  66   0.0000       0.182406         4.9635 
  67   0.0000       0.198885         5.4119 
  68   0.0000       0.202842         5.5196 
  69   0.0000       0.208312         5.6685 
  70   0.0000       0.215501         5.8641 
  71   0.0000       0.227174         6.1817 
  72   0.0000       0.235236         6.4011 
  73   0.0000       0.237608         6.4657 
  74   0.0000       0.247390         6.7318 
  75   0.0000       0.259977         7.0743 
  76   0.0000       0.269170         7.3245 
  77   0.0000       0.280136         7.6229 
  78   0.0000       0.292968         7.9721 
  79   0.0000       0.302950         8.2437 
  80   0.0000       0.322771         8.7830 
  81   0.0000       0.506985        13.7958 
  82   0.0000       0.520567        14.1653 
  83   0.0000       0.543365        14.7857 
  84   0.0000       0.554569        15.0906 
  85   0.0000       0.558169        15.1886 
  86   0.0000       0.567965        15.4551 
  87   0.0000       0.581622        15.8267 
  88   0.0000       0.592258        16.1162 
  89   0.0000       0.598394        16.2831 
  90   0.0000       0.604536        16.4503 
  91   0.0000       0.605678        16.4813 
  92   0.0000       0.618224        16.8227 
  93   0.0000       0.635342        17.2885 
  94   0.0000       0.647973        17.6322 
  95   0.0000       0.652747        17.7622 
  96   0.0000       0.666799        18.1445 
  97   0.0000       0.668652        18.1949 
  98   0.0000       0.688472        18.7343 
  99   0.0000       0.696624        18.9561 
 100   0.0000       0.746451        20.3120 
 101   0.0000       0.768748        20.9187 
 102   0.0000       0.798906        21.7393 
 103   0.0000       0.816961        22.2306 
 104   0.0000       0.824640        22.4396 
 105   0.0000       0.831956        22.6387 
 106   0.0000       0.845196        22.9989 
 107   0.0000       0.853424        23.2229 
 108   0.0000       0.865718        23.5574 
 109   0.0000       0.879361        23.9286 
 110   0.0000       0.887657        24.1544 
 111   0.0000       0.890105        24.2210 
 112   0.0000       0.900114        24.4933 
 113   0.0000       0.906047        24.6548 
 114   0.0000       0.914164        24.8757 
 115   0.0000       0.923876        25.1400 
 116   0.0000       0.937781        25.5183 
 117   0.0000       0.952015        25.9056 
 118   0.0000       0.958497        26.0820 
 119   0.0000       0.966170        26.2908 
 120   0.0000       0.988707        26.9041 
 121   0.0000       0.992484        27.0069 
 122   0.0000       1.003447        27.3052 
 123   0.0000       1.025587        27.9076 
 124   0.0000       1.049209        28.5504 
 125   0.0000       1.075927        29.2775 
 126   0.0000       1.095148        29.8005 
 127   0.0000       1.108800        30.1720 
 128   0.0000       1.123414        30.5697 
 129   0.0000       1.158028        31.5115 
 130   0.0000       1.192466        32.4487 
 131   0.0000       1.242729        33.8164 
 132   0.0000       1.279805        34.8253 
 133   0.0000       1.296040        35.2670 
 134   0.0000       1.329660        36.1819 
 135   0.0000       1.374329        37.3974 
 136   0.0000       1.388115        37.7725 
 137   0.0000       1.447405        39.3859 
 138   0.0000       1.461670        39.7741 
 139   0.0000       1.471700        40.0470 
 140   0.0000       1.520050        41.3627 
 141   0.0000       1.543384        41.9976 
 142   0.0000       1.673009        45.5249 
 143   0.0000       1.721952        46.8567 
 144   0.0000       1.744672        47.4749 
 145   0.0000       1.884176        51.2710 
 146   0.0000       1.991219        54.1838 
 147   0.0000       2.039427        55.4956 
 148   0.0000       2.148070        58.4520 

                    ********************************
                    * MULLIKEN POPULATION ANALYSIS *
                    ********************************

-----------------------
MULLIKEN ATOMIC CHARGES
-----------------------
   0 C :    0.309650
   1 C :   -0.258073
   2 C :   -0.308162
   3 C :   -0.020254
   4 O :   -0.502499
   5 H :    0.158967
   6 H :    0.146846
   7 H :    0.155672
   8 H :    0.150107
   9 H :    0.155122
  10 H :    0.147905
  11 H :    0.154856
  12 C :   -0.043381
  13 H :    0.178045
  14 H :    0.135944
  15 O :   -0.557707
  16 C :    0.104119
  17 C :    0.085671
  18 C :   -0.311630
  19 C :   -0.001117
  20 O :   -0.519676
  21 H :    0.142553
  22 H :    0.158944
  23 O :   -0.607684
  24 H :    0.142735
  25 H :    0.161149
  26 H :    0.139846
  27 H :    0.138547
  28 H :    0.363505
Sum of atomic charges:   -0.0000000

--------------------------------
MULLIKEN REDUCED ORBITAL CHARGES
--------------------------------
  0 C s       :     3.194765  s :     3.194765
      pz      :     0.820005  p :     2.495585
      px      :     0.669712
      py      :     1.005869
  1 C s       :     3.304049  s :     3.304049
      pz      :     0.966862  p :     2.954024
      px      :     1.043717
      py      :     0.943445
  2 C s       :     3.317380  s :     3.317380
      pz      :     0.920912  p :     2.990782
      px      :     1.080797
      py      :     0.989074
  3 C s       :     3.270175  s :     3.270175
      pz      :     0.944664  p :     2.750079
      px      :     1.059644
      py      :     0.745770
  4 O s       :     3.943207  s :     3.943207
      pz      :     1.365134  p :     4.559292
      px      :     1.671251
      py      :     1.522906
  5 H s       :     0.841033  s :     0.841033
  6 H s       :     0.853154  s :     0.853154
  7 H s       :     0.844328  s :     0.844328
  8 H s       :     0.849893  s :     0.849893
  9 H s       :     0.844878  s :     0.844878
 10 H s       :     0.852095  s :     0.852095
 11 H s       :     0.845144  s :     0.845144
 12 C s       :     3.271634  s :     3.271634
      pz      :     0.778929  p :     2.771746
      px      :     0.983199
      py      :     1.009619
 13 H s       :     0.821955  s :     0.821955
 14 H s       :     0.864056  s :     0.864056
 15 O s       :     3.913352  s :     3.913352
      pz      :     1.476297  p :     4.644355
      px      :     1.308981
      py      :     1.859076
 16 C s       :     3.243747  s :     3.243747
      pz      :     1.013035  p :     2.652133
      px      :     0.906299
      py      :     0.732799
 17 C s       :     3.249379  s :     3.249379
      pz      :     0.936596  p :     2.664950
      px      :     0.995037
      py      :     0.733317
 18 C s       :     3.317631  s :     3.317631
      pz      :     0.986251  p :     2.993999
      px      :     1.009006
      py      :     0.998742
 19 C s       :     3.262756  s :     3.262756
      pz      :     0.688839  p :     2.738361
      px      :     1.043197
      py      :     1.006325
 20 O s       :     3.944758  s :     3.944758
      pz      :     1.308556  p :     4.574918
      px      :     1.798645
      py      :     1.467717
 21 H s       :     0.857447  s :     0.857447
 22 H s       :     0.841056  s :     0.841056
 23 O s       :     3.921244  s :     3.921244
      pz      :     1.820418  p :     4.686440
      px      :     1.620129
      py      :     1.245893
 24 H s       :     0.857265  s :     0.857265
 25 H s       :     0.838851  s :     0.838851
 26 H s       :     0.860154  s :     0.860154
 27 H s       :     0.861453  s :     0.861453
 28 H s       :     0.636495  s :     0.636495


                     *******************************
                     * LOEWDIN POPULATION ANALYSIS *
                     *******************************

----------------------
LOEWDIN ATOMIC CHARGES
----------------------
   0 C :    0.186207
   1 C :   -0.221433
   2 C :   -0.219474
   3 C :   -0.032406
   4 O :   -0.309275
   5 H :    0.105429
   6 H :    0.114940
   7 H :    0.123176
   8 H :    0.118666
   9 H :    0.114620
  10 H :    0.104229
  11 H :    0.109355
  12 C :   -0.055279
  13 H :    0.122515
  14 H :    0.100832
  15 O :   -0.355071
  16 C :    0.015391
  17 C :    0.036494
  18 C :   -0.243401
  19 C :   -0.024176
  20 O :   -0.321461
  21 H :    0.111548
  22 H :    0.114687
  23 O :   -0.412484
  24 H :    0.114165
  25 H :    0.120013
  26 H :    0.100522
  27 H :    0.099820
  28 H :    0.281850

-------------------------------
LOEWDIN REDUCED ORBITAL CHARGES
-------------------------------
  0 C s       :     2.952696  s :     2.952696
      pz      :     0.935203  p :     2.861097
      px      :     0.837933
      py      :     1.087961
  1 C s       :     2.981179  s :     2.981179
      pz      :     1.070292  p :     3.240255
      px      :     1.112115
      py      :     1.057848
  2 C s       :     2.971259  s :     2.971259
      pz      :     1.040351  p :     3.248215
      px      :     1.128196
      py      :     1.079668
  3 C s       :     2.987661  s :     2.987661
      pz      :     1.040930  p :     3.044744
      px      :     1.117633
      py      :     0.886180
  4 O s       :     3.600854  s :     3.600854
      pz      :     1.427368  p :     4.708421
      px      :     1.709888
      py      :     1.571165
  5 H s       :     0.894571  s :     0.894571
  6 H s       :     0.885060  s :     0.885060
  7 H s       :     0.876824  s :     0.876824
  8 H s       :     0.881334  s :     0.881334
  9 H s       :     0.885380  s :     0.885380
 10 H s       :     0.895771  s :     0.895771
 11 H s       :     0.890645  s :     0.890645
 12 C s       :     2.981553  s :     2.981553
      pz      :     0.902265  p :     3.073726
      px      :     1.067218
      py      :     1.104243
 13 H s       :     0.877485  s :     0.877485
 14 H s       :     0.899168  s :     0.899168
 15 O s       :     3.576379  s :     3.576379
      pz      :     1.531293  p :     4.778692
      px      :     1.373371
      py      :     1.874027
 16 C s       :     2.961643  s :     2.961643
      pz      :     1.087388  p :     3.022966
      px      :     1.030147
      py      :     0.905432
 17 C s       :     2.952665  s :     2.952665
      pz      :     1.056354  p :     3.010841
      px      :     1.079381
      py      :     0.875106
 18 C s       :     2.983598  s :     2.983598
      pz      :     1.079408  p :     3.259803
      px      :     1.091284
      py      :     1.089111
 19 C s       :     2.981592  s :     2.981592
      pz      :     0.831000  p :     3.042584
      px      :     1.111357
      py      :     1.100228
 20 O s       :     3.597853  s :     3.597853
      pz      :     1.373244  p :     4.723608
      px      :     1.826103
      py      :     1.524261
 21 H s       :     0.888452  s :     0.888452
 22 H s       :     0.885313  s :     0.885313
 23 O s       :     3.609741  s :     3.609741
      pz      :     1.835655  p :     4.802743
      px      :     1.659071
      py      :     1.308017
 24 H s       :     0.885835  s :     0.885835
 25 H s       :     0.879987  s :     0.879987
 26 H s       :     0.899478  s :     0.899478
 27 H s       :     0.900180  s :     0.900180
 28 H s       :     0.718150  s :     0.718150


                      *****************************
                      * MAYER POPULATION ANALYSIS *
                      *****************************

  NA   - Mulliken gross atomic population
  ZA   - Total nuclear charge
  QA   - Mulliken gross atomic charge
  VA   - Mayer's total valence
  BVA  - Mayer's bonded valence
  FA   - Mayer's free valence

  ATOM       NA         ZA         QA         VA         BVA        FA
  0 C      5.6904     6.0000     0.3096     3.6480     3.6480     0.0000
  1 C      6.2581     6.0000    -0.2581     3.7098     3.7098    -0.0000
  2 C      6.3082     6.0000    -0.3082     3.7632     3.7632     0.0000
  3 C      6.0203     6.0000    -0.0203     3.6509     3.6509     0.0000
  4 O      8.5025     8.0000    -0.5025     1.8156     1.8156    -0.0000
  5 H      0.8410     1.0000     0.1590     0.9273     0.9273     0.0000
  6 H      0.8532     1.0000     0.1468     0.9332     0.9332    -0.0000
  7 H      0.8443     1.0000     0.1557     0.9403     0.9403    -0.0000
  8 H      0.8499     1.0000     0.1501     0.9365     0.9365    -0.0000
  9 H      0.8449     1.0000     0.1551     0.9335     0.9335     0.0000
 10 H      0.8521     1.0000     0.1479     0.9275     0.9275    -0.0000
 11 H      0.8451     1.0000     0.1549     0.9286     0.9286    -0.0000
 12 C      6.0434     6.0000    -0.0434     3.6010     3.6010     0.0000
 13 H      0.8220     1.0000     0.1780     0.9372     0.9372    -0.0000
 14 H      0.8641     1.0000     0.1359     0.9366     0.9366     0.0000
 15 O      8.5577     8.0000    -0.5577     1.7260     1.7260     0.0000
 16 C      5.8959     6.0000     0.1041     3.5666     3.5666    -0.0000
 17 C      5.9143     6.0000     0.0857     3.6666     3.6666     0.0000
 18 C      6.3116     6.0000    -0.3116     3.7195     3.7195    -0.0000
 19 C      6.0011     6.0000    -0.0011     3.6687     3.6687    -0.0000
 20 O      8.5197     8.0000    -0.5197     1.7763     1.7763    -0.0000
 21 H      0.8574     1.0000     0.1426     0.9328     0.9328     0.0000
 22 H      0.8411     1.0000     0.1589     0.9272     0.9272     0.0000
 23 O      8.6077     8.0000    -0.6077     1.7513     1.7513     0.0000
 24 H      0.8573     1.0000     0.1427     0.9363     0.9363    -0.0000
 25 H      0.8389     1.0000     0.1611     0.9519     0.9519    -0.0000
 26 H      0.8602     1.0000     0.1398     0.9276     0.9276    -0.0000
 27 H      0.8615     1.0000     0.1385     0.9279     0.9279     0.0000
 28 H      0.6365     1.0000     0.3635     0.8355     0.8355    -0.0000

  Mayer bond orders larger than 0.100000
B(  0-C ,  1-C ) :   0.9305 B(  0-C ,  4-O ) :   0.9227 B(  0-C ,  5-H ) :   0.9278 
B(  0-C , 15-O ) :   0.8266 B(  1-C ,  2-C ) :   0.9534 B(  1-C ,  6-H ) :   0.9347 
B(  1-C ,  7-H ) :   0.9367 B(  2-C ,  3-C ) :   0.9520 B(  2-C ,  8-H ) :   0.9446 
B(  2-C ,  9-H ) :   0.9457 B(  3-C ,  4-O ) :   0.8278 B(  3-C , 10-H ) :   0.9325 
B(  3-C , 11-H ) :   0.9404 B( 12-C , 13-H ) :   0.9060 B( 12-C , 14-H ) :   0.9143 
B( 12-C , 15-O ) :   0.8370 B( 12-C , 16-C ) :   0.9004 B( 16-C , 17-C ) :   0.8876 
B( 16-C , 20-O ) :   0.8798 B( 16-C , 21-H ) :   0.9259 B( 17-C , 18-C ) :   0.9333 
B( 17-C , 22-H ) :   0.9370 B( 17-C , 23-O ) :   0.9009 B( 18-C , 19-C ) :   0.9445 
B( 18-C , 24-H ) :   0.9411 B( 18-C , 25-H ) :   0.9277 B( 19-C , 20-O ) :   0.8412 
B( 19-C , 26-H ) :   0.9317 B( 19-C , 27-H ) :   0.9386 B( 23-O , 28-H ) :   0.7931 


-------
TIMINGS
-------

Total SCF time: 0 days 0 hours 1 min 38 sec 

Total time                  ....      98.211 sec
Sum of individual times     ....      87.394 sec  ( 89.0%)

Fock matrix formation       ....      77.589 sec  ( 79.0%)
  XC integration            ....      22.933 sec  ( 29.6% of F)
    Basis function eval.    ....       1.916 sec  (  8.4% of XC)
    Density eval.           ....       0.750 sec  (  3.3% of XC)
    XC-Functional eval.     ....       0.346 sec  (  1.5% of XC)
    XC-Potential eval.      ....       0.819 sec  (  3.6% of XC)
Diagonalization             ....       0.007 sec  (  0.0%)
Density matrix formation    ....       0.004 sec  (  0.0%)
Population analysis         ....       2.631 sec  (  2.7%)
Initial guess               ....       0.012 sec  (  0.0%)
Orbital Transformation      ....       0.000 sec  (  0.0%)
Orbital Orthonormalization  ....       0.007 sec  (  0.0%)
DIIS solution               ....       0.001 sec  (  0.0%)
SOSCF solution              ....       0.497 sec  (  0.5%)
Grid generation             ....       6.653 sec  (  6.8%)

-------------------------   --------------------
FINAL SINGLE POINT ENERGY      -652.860621584832
-------------------------   --------------------

                                *** OPTIMIZATION RUN DONE ***

                            ***************************************
                            *     ORCA property calculations      *
                            ***************************************

                                    ---------------------
                                    Active property flags
                                    ---------------------
   (+) Dipole Moment


------------------------------------------------------------------------------
                       ORCA ELECTRIC PROPERTIES CALCULATION
------------------------------------------------------------------------------

Dipole Moment Calculation                       ... on
Quadrupole Moment Calculation                   ... off
Polarizability Calculation                      ... off
GBWName                                         ... project_8049/ensemble_0_240.gbw
Electron density file                           ... project_8049/ensemble_0_240.scfp
The origin for moment calculation is the CENTER OF MASS  = (-42.944930, 48.925286 88.607048)

-------------
DIPOLE MOMENT
-------------
                                X             Y             Z
Electronic contribution:     -2.31907      -3.17543       1.12185
Nuclear contribution   :      3.17673       4.16225      -1.49497
                        -----------------------------------------
Total Dipole Moment    :      0.85767       0.98682      -0.37312
                        -----------------------------------------
Magnitude (a.u.)       :      1.35964
Magnitude (Debye)      :      3.45593



--------------------
Rotational spectrum 
--------------------
 
Rotational constants in cm-1:     0.050282     0.015697     0.014685 
Rotational constants in MHz :  1507.418461   470.569933   440.230705 

 Dipole components along the rotational axes: 
x,y,z [a.u.] :     1.141187    -0.487876    -0.555242 
x,y,z [Debye]:     2.900668    -1.240083    -1.411312 

 

Timings for individual modules:

Sum of individual times         ...     1454.398 sec (=  24.240 min)
GTO integral calculation        ...       15.097 sec (=   0.252 min)   1.0 %
SCF iterations                  ...     1138.453 sec (=  18.974 min)  78.3 %
SCF Gradient evaluation         ...      225.415 sec (=   3.757 min)  15.5 %
Geometry relaxation             ...       75.434 sec (=   1.257 min)   5.2 %
                             ****ORCA TERMINATED NORMALLY****
TOTAL RUN TIME: 0 days 0 hours 24 minutes 46 seconds 912 msec
