
                                 *****************
                                 * O   R   C   A *
                                 *****************

           --- An Ab Initio, DFT and Semiempirical electronic structure package ---

                  #######################################################
                  #                        -***-                        #
                  #          Department of theory and spectroscopy      #
                  #               Directorship: Frank Neese             #
                  #        Max Planck Institute fuer Kohlenforschung    #
                  #                Kaiser Wilhelm Platz 1               #
                  #                 D-45470 Muelheim/Ruhr               #
                  #                      Germany                        #
                  #                                                     #
                  #                  All rights reserved                #
                  #                        -***-                        #
                  #######################################################


                         Program Version 4.2.0 -  RELEASE  -


 With contributions from (in alphabetic order):
   Daniel Aravena         : Magnetic Suceptibility
   Michael Atanasov       : Ab Initio Ligand Field Theory (pilot matlab implementation)
   Alexander A. Auer      : GIAO ZORA, VPT2
   Ute Becker             : Parallelization
   Giovanni Bistoni       : ED, misc. LED, open-shell LED, HFLED
   Martin Brehm           : Molecular dynamics
   Dmytro Bykov           : SCF Hessian
   Vijay G. Chilkuri      : MRCI spin determinant printing, contributions to CSF-ICE
   Dipayan Datta          : RHF DLPNO-CCSD density
   Achintya Kumar Dutta   : EOM-CC, STEOM-CC
   Dmitry Ganyushin       : Spin-Orbit,Spin-Spin,Magnetic field MRCI
   Miquel Garcia          : C-PCM Hessian, Gaussian charge scheme
   Yang Guo               : DLPNO-NEVPT2, CIM, IAO-localization
   Andreas Hansen         : Spin unrestricted coupled pair/coupled cluster methods
   Benjamin Helmich-Paris : CASSCF linear response (MC-RPA)
   Lee Huntington         : MR-EOM, pCC
   Robert Izsak           : Overlap fitted RIJCOSX, COSX-SCS-MP3, EOM
   Christian Kollmar      : KDIIS, OOCD, Brueckner-CCSD(T), CCSD density
   Simone Kossmann        : Meta GGA functionals, TD-DFT gradient, OOMP2, MP2 Hessian
   Martin Krupicka        : AUTO-CI
   Lucas Lang             : DCDCAS
   Dagmar Lenk            : GEPOL surface, SMD
   Dimitrios Liakos       : Extrapolation schemes; Compound Job, initial MDCI parallelization
   Dimitrios Manganas     : Further ROCIS development; embedding schemes
   Dimitrios Pantazis     : SARC Basis sets
   Taras Petrenko         : DFT Hessian,TD-DFT gradient, ASA, ECA, R-Raman, ABS, FL, XAS/XES, NRVS
   Peter Pinski           : DLPNO-MP2, DLPNO-MP2 Gradient
   Christoph Reimann      : Effective Core Potentials
   Marius Retegan         : Local ZFS, SOC
   Christoph Riplinger    : Optimizer, TS searches, QM/MM, DLPNO-CCSD(T), (RO)-DLPNO pert. Triples
   Tobias Risthaus        : Range-separated hybrids, TD-DFT gradient, RPA, STAB
   Michael Roemelt        : Original ROCIS implementation
   Masaaki Saitow         : Open-shell DLPNO-CCSD energy and density
   Barbara Sandhoefer     : DKH picture change effects
   Avijit Sen             : IP-ROCIS
   Kantharuban Sivalingam : CASSCF convergence, NEVPT2, FIC-MRCI
   Bernardo de Souza      : ESD, SOC TD-DFT
   Georgi Stoychev        : AutoAux, RI-MP2 NMR
   Willem Van den Heuvel  : Paramagnetic NMR
   Boris Wezisla          : Elementary symmetry handling
   Frank Wennmohs         : Technical directorship


 We gratefully acknowledge several colleagues who have allowed us to
 interface, adapt or use parts of their codes:
   Stefan Grimme, W. Hujo, H. Kruse,             : VdW corrections, initial TS optimization,
                  C. Bannwarth                     DFT functionals, gCP, sTDA/sTD-DF
   Ed Valeev, F. Pavosevic, A. Kumar             : LibInt (2-el integral package), F12 methods
   Garnet Chan, S. Sharma, J. Yang, R. Olivares  : DMRG
   Ulf Ekstrom                                   : XCFun DFT Library
   Mihaly Kallay                                 : mrcc  (arbitrary order and MRCC methods)
   Andreas Klamt, Michael Diedenhofen            : otool_cosmo (COSMO solvation model)
   Jiri Pittner, Ondrej Demel                    : Mk-CCSD
   Frank Weinhold                                : gennbo (NPA and NBO analysis)
   Christopher J. Cramer and Donald G. Truhlar   : smd solvation model
   Lars Goerigk                                  : TD-DFT with DH, B97 family of functionals
   V. Asgeirsson, H. Jonsson                     : NEB implementation
   FAccTs GmbH                                   : IRC, NEB, NEB-TS, Multilevel, MM, QM/MM, CI optimization
   S Lehtola, MJT Oliveira, MAL Marques          : LibXC Library


 Your calculation uses the libint2 library for the computation of 2-el integrals
 For citations please refer to: http://libint.valeyev.net

 Your ORCA version has been built with support for libXC version: 4.2.3
 For citations please refer to: https://tddft.org/programs/libxc/

 This ORCA versions uses:
   CBLAS   interface :  Fast vector & matrix operations
   LAPACKE interface :  Fast linear algebra routines
   SCALAPACK package :  Parallel linear algebra routines


----- Orbital basis set information -----
Your calculation utilizes the basis: 6-31G
   H-He, Li-Ne : W. J. Hehre, R. Ditchfield and J.A. Pople, J. Chem. Phys. 56, 2257 (1972).
                 Note: He and Ne are unpublished basis sets taken from the Gaussian program.
                 Note: Li and B from J. D. Dill and J. A. Pople, J. Chem. Phys. 62, 2921 (1975).
   Na - Ar     : M. M. Francl, W. J. Pietro, W. J. Hehre, J. S. Binkley, M. S. Gordon, 
                 D. J. DeFrees and J. A. Pople, J. Chem. Phys. 77, 3654 (1982).
   K - Zn      : V. A. Rassolov, J. A. Pople, M. A. Ratner, and T. L. Windus, J. Chem. Phys. 109, 1223 (1998).

================================================================================
                                        WARNINGS
                       Please study these warnings very carefully!
================================================================================


WARNING: Geometry Optimization
  ===> : Switching off AutoStart
         For restart on a previous wavefunction, please use MOREAD

INFO   : the flag for use of LIBINT has been found!

================================================================================
                                       INPUT FILE
================================================================================
NAME = project_8051/ensemble_240_90.inp
|  1> # Test redundant internal optimization
|  2> #
|  3> ! RKS B3LYP  Opt TightSCF SmallPrint
|  4> 
|  5> %basis
|  6>         Basis "6-31G"
|  7> end
|  8> 
|  9> %geom
| 10> Constraints
| 11> { D 4  0  15  12  240.0   C } # D for Dihedral angle
| 12> { D 0  15  12  16  90.0   C } # D for Dihedral angle
| 13> { D 0  4  3  2   C } # D for Dihedral angle
| 14> { D 4  3  2  1   C } # D for Dihedral angle
| 15> { D 3  2  1  0   C } # D for Dihedral angle
| 16> { D 2  1  0  4   C } # D for Dihedral angle
| 17> { D 1  0  4  3   C } # D for Dihedral angle
| 18> { D 16  20  19  18   C } # D for Dihedral angle
| 19> { D 20  19  18  17   C } # D for Dihedral angle
| 20> { D 19  18  17  16   C } # D for Dihedral angle
| 21> { D 18  17  16  20   C } # D for Dihedral angle
| 22> { D 17  16  20  19   C } # D for Dihedral angle
| 23> { D 15  12  16  20   C } # D for Dihedral angle
| 24> end
| 25> end
| 26> 
| 27> 
| 28> #%pal 
| 29> #nprocs 8
| 30> #end
| 31> 
| 32> * xyz 0 1
| 33> C  -21.048   26.222   46.251
| 34> C  -20.361   27.558   45.944
| 35> C  -20.329   28.222   47.341
| 36> C  -20.110   27.022   48.296
| 37> O  -20.473   25.807   47.535
| 38> H  -20.833   25.428   45.533
| 39> H  -19.344   27.382   45.576
| 40> H  -20.898   28.157   45.201
| 41> H  -19.543   28.978   47.434
| 42> H  -21.289   28.710   47.548
| 43> H  -20.733   27.082   49.195
| 44> H  -19.064   26.913   48.597
| 45> C  -23.430   25.483   45.442
| 46> H  -24.364   25.996   45.183
| 47> H  -22.884   25.274   44.513
| 48> O  -22.586   26.394   46.375
| 49> C  -23.787   24.120   46.097
| 50> C  -24.698   24.309   47.315
| 51> C  -26.076   24.524   46.645
| 52> C  -26.012   23.599   45.404
| 53> O  -24.582   23.301   45.175
| 54> H  -22.867   23.569   46.301
| 55> H  -24.703   23.399   47.926
| 56> O  -24.273   25.501   48.216
| 57> H  -26.913   24.278   47.307
| 58> H  -26.188   25.572   46.342
| 59> H  -26.429   24.070   44.508
| 60> H  -26.518   22.644   45.569
| 61> H  -24.261   26.423   47.624
| 62> *
| 63> 
| 64>                          ****END OF INPUT****
================================================================================

                       *****************************
                       * Geometry Optimization Run *
                       *****************************

Geometry optimization settings:
Update method            Update   .... BFGS
Choice of coordinates    CoordSys .... Z-matrix Internals
Initial Hessian          InHess   .... Almoef's Model

Convergence Tolerances:
Energy Change            TolE     ....  5.0000e-06 Eh
Max. Gradient            TolMAXG  ....  3.0000e-04 Eh/bohr
RMS Gradient             TolRMSG  ....  1.0000e-04 Eh/bohr
Max. Displacement        TolMAXD  ....  4.0000e-03 bohr
RMS Displacement         TolRMSD  ....  2.0000e-03 bohr
Strict Convergence                ....  False
------------------------------------------------------------------------------
                        ORCA OPTIMIZATION COORDINATE SETUP
------------------------------------------------------------------------------

The optimization will be done in new redundant internal coordinates
Making redundant internal coordinates   ...  (new redundants) done
Evaluating the initial hessian          ...  (Almloef) done
Evaluating the coordinates              ...  done
Calculating the B-matrix                .... done
Calculating the G-matrix                .... done
Diagonalizing the G-matrix              .... done
Imposing constraints:
 Iter   0:  RMS(Cart)=    0.0001003823 RMS(Int)=    0.0000388659
 Iter   1:  RMS(Cart)=    0.0000510389 RMS(Int)=    0.0000211412
 Iter   2:  RMS(Cart)=    0.0000266298 RMS(Int)=    0.0000124407
 Iter   3:  RMS(Cart)=    0.0000143781 RMS(Int)=    0.0000082649
 Iter   4:  RMS(Cart)=    0.0000081262 RMS(Int)=    0.0000063237
 Iter   5:  RMS(Cart)=    0.0000048705 RMS(Int)=    0.0000054153
 Iter   6:  RMS(Cart)=    0.0000031297 RMS(Int)=    0.0000049505
 Iter   7:  RMS(Cart)=    0.0000021670 RMS(Int)=    0.0000046724
 Iter   8:  RMS(Cart)=    0.0000016137 RMS(Int)=    0.0000044758
 Iter   9:  RMS(Cart)=    0.0000012833 RMS(Int)=    0.0000043172
 Iter  10:  RMS(Cart)=    0.0000010783 RMS(Int)=    0.0000041784
 Iter  11:  RMS(Cart)=    0.0000009463 RMS(Int)=    0.0000040508
 Iter  12:  RMS(Cart)=    0.0000008573 RMS(Int)=    0.0000039307
 Iter  13:  RMS(Cart)=    0.0000007943 RMS(Int)=    0.0000038161
 Iter  14:  RMS(Cart)=    0.0000007473 RMS(Int)=    0.0000037059
 Iter  15:  RMS(Cart)=    0.0000007103 RMS(Int)=    0.0000035995
 Iter  16:  RMS(Cart)=    0.0000006797 RMS(Int)=    0.0000034968
 Iter  17:  RMS(Cart)=    0.0000006534 RMS(Int)=    0.0000033974
 Iter  18:  RMS(Cart)=    0.0000006301 RMS(Int)=    0.0000033011
 Iter  19:  RMS(Cart)=    0.0000006088 RMS(Int)=    0.0000032079
 Iter  20:  RMS(Cart)=    0.0000005893 RMS(Int)=    0.0000031176
 Iter  21:  RMS(Cart)=    0.0000005709 RMS(Int)=    0.0000030302
 Iter  22:  RMS(Cart)=    0.0000005534 RMS(Int)=    0.0000029455
 Iter  23:  RMS(Cart)=    0.0000005370 RMS(Int)=    0.0000028634
 Iter  24:  RMS(Cart)=    0.0000005212 RMS(Int)=    0.0000027838
 Iter  25:  RMS(Cart)=    0.0000005059 RMS(Int)=    0.0000027067
 Iter  26:  RMS(Cart)=    0.0000004912 RMS(Int)=    0.0000026320
 Iter  27:  RMS(Cart)=    0.0000004771 RMS(Int)=    0.0000025596
 Iter  28:  RMS(Cart)=    0.0000004633 RMS(Int)=    0.0000024894
 Iter  29:  RMS(Cart)=    0.0000004502 RMS(Int)=    0.0000024213
 Iter  30:  RMS(Cart)=    0.0000004374 RMS(Int)=    0.0000023554
 Iter  31:  RMS(Cart)=    0.0000004250 RMS(Int)=    0.0000022914
 Iter  32:  RMS(Cart)=    0.0000004132 RMS(Int)=    0.0000022294
 Iter  33:  RMS(Cart)=    0.0000004015 RMS(Int)=    0.0000021693
 Iter  34:  RMS(Cart)=    0.0000003898 RMS(Int)=    0.0000021110
 Iter  35:  RMS(Cart)=    0.0000003791 RMS(Int)=    0.0000020545
 Iter  36:  RMS(Cart)=    0.0000003688 RMS(Int)=    0.0000019996
 Iter  37:  RMS(Cart)=    0.0000003583 RMS(Int)=    0.0000019464
 Iter  38:  RMS(Cart)=    0.0000003483 RMS(Int)=    0.0000018948
 Iter  39:  RMS(Cart)=    0.0000003388 RMS(Int)=    0.0000018448
 Iter  40:  RMS(Cart)=    0.0000003294 RMS(Int)=    0.0000017963
 Iter  41:  RMS(Cart)=    0.0000003203 RMS(Int)=    0.0000017492
 Iter  42:  RMS(Cart)=    0.0000003116 RMS(Int)=    0.0000017035
 Iter  43:  RMS(Cart)=    0.0000003029 RMS(Int)=    0.0000016591
 Iter  44:  RMS(Cart)=    0.0000002944 RMS(Int)=    0.0000016161
 Iter  45:  RMS(Cart)=    0.0000002864 RMS(Int)=    0.0000015744
 Iter  46:  RMS(Cart)=    0.0000002788 RMS(Int)=    0.0000015339
 Iter  47:  RMS(Cart)=    0.0000002712 RMS(Int)=    0.0000014946
 Iter  48:  RMS(Cart)=    0.0000002638 RMS(Int)=    0.0000014564
 Iter  49:  RMS(Cart)=    0.0000002564 RMS(Int)=    0.0000014194
 Iter  50:  RMS(Cart)=    0.0000002499 RMS(Int)=    0.0000013834
 Iter  51:  RMS(Cart)=    0.0000002430 RMS(Int)=    0.0000013485
 Iter  52:  RMS(Cart)=    0.0000002365 RMS(Int)=    0.0000013146
 Iter  53:  RMS(Cart)=    0.0000002299 RMS(Int)=    0.0000012817
 Iter  54:  RMS(Cart)=    0.0000002240 RMS(Int)=    0.0000012497
 Iter  55:  RMS(Cart)=    0.0000002178 RMS(Int)=    0.0000012187
 Iter  56:  RMS(Cart)=    0.0000002121 RMS(Int)=    0.0000011886
 Iter  57:  RMS(Cart)=    0.0000002065 RMS(Int)=    0.0000011594
 Iter  58:  RMS(Cart)=    0.0000002009 RMS(Int)=    0.0000011309
 Iter  59:  RMS(Cart)=    0.0000001957 RMS(Int)=    0.0000011033
 Iter  60:  RMS(Cart)=    0.0000001903 RMS(Int)=    0.0000010765
 Iter  61:  RMS(Cart)=    0.0000001852 RMS(Int)=    0.0000010505
 Iter  62:  RMS(Cart)=    0.0000001807 RMS(Int)=    0.0000010252
 Iter  63:  RMS(Cart)=    0.0000001757 RMS(Int)=    0.0000010006
 Iter  64:  RMS(Cart)=    0.0000001713 RMS(Int)=    0.0000009768
 Iter  65:  RMS(Cart)=    0.0000001669 RMS(Int)=    0.0000009536
 Iter  66:  RMS(Cart)=    0.0000001624 RMS(Int)=    0.0000009310
 Iter  67:  RMS(Cart)=    0.0000001581 RMS(Int)=    0.0000009091
 Iter  68:  RMS(Cart)=    0.0000001542 RMS(Int)=    0.0000008878
 Iter  69:  RMS(Cart)=    0.0000001503 RMS(Int)=    0.0000008671
 Iter  70:  RMS(Cart)=    0.0000001462 RMS(Int)=    0.0000008471
 Iter  71:  RMS(Cart)=    0.0000001426 RMS(Int)=    0.0000008275
 Iter  72:  RMS(Cart)=    0.0000001391 RMS(Int)=    0.0000008085
 Iter  73:  RMS(Cart)=    0.0000001353 RMS(Int)=    0.0000007900
 Iter  74:  RMS(Cart)=    0.0000001320 RMS(Int)=    0.0000007721
 Iter  75:  RMS(Cart)=    0.0000001285 RMS(Int)=    0.0000007546
 Iter  76:  RMS(Cart)=    0.0000001251 RMS(Int)=    0.0000007376
 Iter  77:  RMS(Cart)=    0.0000001219 RMS(Int)=    0.0000007211
 Iter  78:  RMS(Cart)=    0.0000001190 RMS(Int)=    0.0000007051
 Iter  79:  RMS(Cart)=    0.0000001159 RMS(Int)=    0.0000006895
 Iter  80:  RMS(Cart)=    0.0000001132 RMS(Int)=    0.0000006743
 Iter  81:  RMS(Cart)=    0.0000001101 RMS(Int)=    0.0000006595
 Iter  82:  RMS(Cart)=    0.0000001073 RMS(Int)=    0.0000006451
 Iter  83:  RMS(Cart)=    0.0000001046 RMS(Int)=    0.0000006312
 Iter  84:  RMS(Cart)=    0.0000001023 RMS(Int)=    0.0000006175
 Iter  85:  RMS(Cart)=    0.0000000995 RMS(Int)=    0.0000006043
 Iter  86:  RMS(Cart)=    0.0000000974 RMS(Int)=    0.0000005914
 Iter  87:  RMS(Cart)=    0.0000000947 RMS(Int)=    0.0000005789
 Iter  88:  RMS(Cart)=    0.0000000923 RMS(Int)=    0.0000005667
 Iter  89:  RMS(Cart)=    0.0000000900 RMS(Int)=    0.0000005548
 Iter  90:  RMS(Cart)=    0.0000000878 RMS(Int)=    0.0000005433
 Iter  91:  RMS(Cart)=    0.0000000856 RMS(Int)=    0.0000005320
 Iter  92:  RMS(Cart)=    0.0000000839 RMS(Int)=    0.0000005211
 Iter  93:  RMS(Cart)=    0.0000000816 RMS(Int)=    0.0000005104
 Iter  94:  RMS(Cart)=    0.0000000794 RMS(Int)=    0.0000005000
 Iter  95:  RMS(Cart)=    0.0000000779 RMS(Int)=    0.0000004899
 Iter  96:  RMS(Cart)=    0.0000000758 RMS(Int)=    0.0000004801
 Iter  97:  RMS(Cart)=    0.0000000744 RMS(Int)=    0.0000004704
 Iter  98:  RMS(Cart)=    0.0000000723 RMS(Int)=    0.0000004611
 Iter  99:  RMS(Cart)=    0.0000000705 RMS(Int)=    0.0000004520
 RMS(Cart) too big - taking linear step, building new B-matrix and trying again
Imposing constraints:
 Iter   0:  RMS(Cart)=    0.0000510392 RMS(Int)=    0.0000211413
 Iter   1:  RMS(Cart)=    0.0000266301 RMS(Int)=    0.0000124408
 Iter   2:  RMS(Cart)=    0.0000143785 RMS(Int)=    0.0000082649
 Iter   3:  RMS(Cart)=    0.0000081265 RMS(Int)=    0.0000063236
 Iter   4:  RMS(Cart)=    0.0000048707 RMS(Int)=    0.0000054151
 Iter   5:  RMS(Cart)=    0.0000031298 RMS(Int)=    0.0000049503
 Iter   6:  RMS(Cart)=    0.0000021670 RMS(Int)=    0.0000046722
 Iter   7:  RMS(Cart)=    0.0000016138 RMS(Int)=    0.0000044755
 Iter   8:  RMS(Cart)=    0.0000012833 RMS(Int)=    0.0000043170
 Iter   9:  RMS(Cart)=    0.0000010783 RMS(Int)=    0.0000041782
 Iter  10:  RMS(Cart)=    0.0000009462 RMS(Int)=    0.0000040506
 Iter  11:  RMS(Cart)=    0.0000008573 RMS(Int)=    0.0000039305
 Iter  12:  RMS(Cart)=    0.0000007943 RMS(Int)=    0.0000038159
 Iter  13:  RMS(Cart)=    0.0000007473 RMS(Int)=    0.0000037056
 Iter  14:  RMS(Cart)=    0.0000007103 RMS(Int)=    0.0000035993
 Iter  15:  RMS(Cart)=    0.0000006796 RMS(Int)=    0.0000034966
 Iter  16:  RMS(Cart)=    0.0000006534 RMS(Int)=    0.0000033972
 Iter  17:  RMS(Cart)=    0.0000006301 RMS(Int)=    0.0000033009
 Iter  18:  RMS(Cart)=    0.0000006089 RMS(Int)=    0.0000032077
 Iter  19:  RMS(Cart)=    0.0000005892 RMS(Int)=    0.0000031174
 Iter  20:  RMS(Cart)=    0.0000005709 RMS(Int)=    0.0000030300
 Iter  21:  RMS(Cart)=    0.0000005535 RMS(Int)=    0.0000029453
 Iter  22:  RMS(Cart)=    0.0000005369 RMS(Int)=    0.0000028632
 Iter  23:  RMS(Cart)=    0.0000005210 RMS(Int)=    0.0000027836
 Iter  24:  RMS(Cart)=    0.0000005060 RMS(Int)=    0.0000027065
 Iter  25:  RMS(Cart)=    0.0000004912 RMS(Int)=    0.0000026318
 Iter  26:  RMS(Cart)=    0.0000004769 RMS(Int)=    0.0000025594
 Iter  27:  RMS(Cart)=    0.0000004634 RMS(Int)=    0.0000024892
 Iter  28:  RMS(Cart)=    0.0000004501 RMS(Int)=    0.0000024212
 Iter  29:  RMS(Cart)=    0.0000004374 RMS(Int)=    0.0000023552
 Iter  30:  RMS(Cart)=    0.0000004250 RMS(Int)=    0.0000022912
 Iter  31:  RMS(Cart)=    0.0000004130 RMS(Int)=    0.0000022292
 Iter  32:  RMS(Cart)=    0.0000004014 RMS(Int)=    0.0000021691
 Iter  33:  RMS(Cart)=    0.0000003901 RMS(Int)=    0.0000021108
 Iter  34:  RMS(Cart)=    0.0000003792 RMS(Int)=    0.0000020543
 Iter  35:  RMS(Cart)=    0.0000003686 RMS(Int)=    0.0000019995
 Iter  36:  RMS(Cart)=    0.0000003584 RMS(Int)=    0.0000019463
 Iter  37:  RMS(Cart)=    0.0000003485 RMS(Int)=    0.0000018947
 Iter  38:  RMS(Cart)=    0.0000003385 RMS(Int)=    0.0000018446
 Iter  39:  RMS(Cart)=    0.0000003293 RMS(Int)=    0.0000017961
 Iter  40:  RMS(Cart)=    0.0000003203 RMS(Int)=    0.0000017490
 Iter  41:  RMS(Cart)=    0.0000003114 RMS(Int)=    0.0000017033
 Iter  42:  RMS(Cart)=    0.0000003030 RMS(Int)=    0.0000016590
 Iter  43:  RMS(Cart)=    0.0000002944 RMS(Int)=    0.0000016160
 Iter  44:  RMS(Cart)=    0.0000002864 RMS(Int)=    0.0000015742
 Iter  45:  RMS(Cart)=    0.0000002784 RMS(Int)=    0.0000015337
 Iter  46:  RMS(Cart)=    0.0000002711 RMS(Int)=    0.0000014944
 Iter  47:  RMS(Cart)=    0.0000002638 RMS(Int)=    0.0000014562
 Iter  48:  RMS(Cart)=    0.0000002567 RMS(Int)=    0.0000014192
 Iter  49:  RMS(Cart)=    0.0000002497 RMS(Int)=    0.0000013833
 Iter  50:  RMS(Cart)=    0.0000002430 RMS(Int)=    0.0000013484
 Iter  51:  RMS(Cart)=    0.0000002365 RMS(Int)=    0.0000013145
 Iter  52:  RMS(Cart)=    0.0000002299 RMS(Int)=    0.0000012816
 Iter  53:  RMS(Cart)=    0.0000002239 RMS(Int)=    0.0000012496
 Iter  54:  RMS(Cart)=    0.0000002179 RMS(Int)=    0.0000012186
 Iter  55:  RMS(Cart)=    0.0000002122 RMS(Int)=    0.0000011885
 Iter  56:  RMS(Cart)=    0.0000002063 RMS(Int)=    0.0000011592
 Iter  57:  RMS(Cart)=    0.0000002007 RMS(Int)=    0.0000011308
 Iter  58:  RMS(Cart)=    0.0000001956 RMS(Int)=    0.0000011032
 Iter  59:  RMS(Cart)=    0.0000001905 RMS(Int)=    0.0000010764
 Iter  60:  RMS(Cart)=    0.0000001853 RMS(Int)=    0.0000010504
 Iter  61:  RMS(Cart)=    0.0000001806 RMS(Int)=    0.0000010251
 Iter  62:  RMS(Cart)=    0.0000001757 RMS(Int)=    0.0000010005
 Iter  63:  RMS(Cart)=    0.0000001713 RMS(Int)=    0.0000009766
CONVERGED
Small eigenvalue found = 8.246e-03
Small eigenvalue found = 1.032e-02
Small eigenvalue found = 1.875e-02
The first mode is                       ....   91
The number of degrees of freedom        ....   81
Storing new coordinates                 .... done

    -----------------------------------------------------------------
                    Redundant Internal Coordinates


    -----------------------------------------------------------------
         Definition                    Initial Value    Approx d2E/dq
    -----------------------------------------------------------------
      1. B(C   1,C   0)                  1.5333         0.369027   
      2. B(C   2,C   1)                  1.5471         0.350825   
      3. B(C   3,C   2)                  1.5492         0.348147   
      4. B(O   4,C   0)                  1.4668         0.422031   
      5. B(O   4,C   3)                  1.4789         0.403699   
      6. B(H   5,C   0)                  1.0919         0.357632   
      7. B(H   6,C   1)                  1.0958         0.352561   
      8. B(H   7,C   1)                  1.0951         0.353431   
      9. B(H   8,C   2)                  1.0945         0.354166   
     10. B(H   9,C   2)                  1.0966         0.351438   
     11. B(H  10,C   3)                  1.0954         0.353010   
     12. B(H  11,C   3)                  1.0939         0.354989   
     13. B(H  13,C  12)                  1.0966         0.351430   
     14. B(H  14,C  12)                  1.0977         0.350119   
     15. B(O  15,C   0)                  1.5525         0.307993   
     16. B(O  15,C  12)                  1.5533         0.307141   
     17. B(C  16,C  12)                  1.5538         0.342320   
     18. B(C  17,C  16)                  1.5327         0.369889   
     19. B(C  18,C  17)                  1.5473         0.350625   
     20. B(C  19,C  18)                  1.5491         0.348223   
     21. B(O  20,C  16)                  1.4673         0.421310   
     22. B(O  20,C  19)                  1.4786         0.404186   
     23. B(H  21,C  16)                  1.0916         0.357974   
     24. B(H  22,C  17)                  1.0961         0.352114   
     25. B(O  23,C  17)                  1.5535         0.306944   
     26. B(H  24,C  18)                  1.0951         0.353366   
     27. B(H  25,C  18)                  1.0967         0.351400   
     28. B(H  26,C  19)                  1.0948         0.353830   
     29. B(H  27,C  19)                  1.0933         0.355772   
     30. B(H  28,O  23)                  1.0958         0.315769   
     31. A(O   4,C   0,H   5)          107.0166         0.328541   
     32. A(C   1,C   0,O  15)          111.3062         0.348740   
     33. A(C   1,C   0,O   4)          104.2509         0.367935   
     34. A(O   4,C   0,O  15)          110.4722         0.354548   
     35. A(C   1,C   0,H   5)          114.4407         0.323302   
     36. A(H   5,C   0,O  15)          109.1540         0.312058   
     37. A(C   0,C   1,C   2)          101.6783         0.358729   
     38. A(C   2,C   1,H   7)          112.8334         0.320016   
     39. A(C   2,C   1,H   6)          110.6702         0.319888   
     40. A(C   0,C   1,H   6)          110.0681         0.322546   
     41. A(H   6,C   1,H   7)          108.3679         0.289027   
     42. A(C   0,C   1,H   7)          113.1246         0.322677   
     43. A(C   1,C   2,H   8)          112.8312         0.320125   
     44. A(C   1,C   2,C   3)          103.1286         0.355196   
     45. A(C   1,C   2,H   9)          110.0795         0.319721   
     46. A(C   3,C   2,H   9)          110.6147         0.319321   
     47. A(C   3,C   2,H   8)          112.4032         0.319725   
     48. A(H   8,C   2,H   9)          107.7731         0.288977   
     49. A(O   4,C   3,H  10)          109.1301         0.325449   
     50. A(C   2,C   3,H  10)          112.5254         0.319554   
     51. A(C   2,C   3,O   4)          106.5267         0.361529   
     52. A(O   4,C   3,H  11)          107.1240         0.325748   
     53. A(H  10,C   3,H  11)          108.8727         0.289284   
     54. A(C   2,C   3,H  11)          112.4569         0.319846   
     55. A(C   0,O   4,C   3)          108.3128         0.371320   
     56. A(H  14,C  12,C  16)          107.7043         0.318248   
     57. A(H  13,C  12,H  14)          108.2303         0.288456   
     58. A(H  13,C  12,O  15)          109.2866         0.311037   
     59. A(H  14,C  12,O  15)          110.4717         0.310849   
     60. A(O  15,C  12,C  16)          112.7130         0.344201   
     61. A(H  13,C  12,C  16)          108.3106         0.318442   
     62. A(C   0,O  15,C  12)          115.1708         0.336120   
     63. A(C  12,C  16,C  17)          111.3090         0.357376   
     64. A(C  12,C  16,O  20)          110.4408         0.363126   
     65. A(C  17,C  16,O  20)          104.2495         0.367975   
     66. A(C  12,C  16,H  21)          109.1422         0.319402   
     67. A(C  17,C  16,H  21)          114.4986         0.323477   
     68. A(O  20,C  16,H  21)          106.9971         0.328501   
     69. A(C  16,C  17,C  18)          101.6759         0.358836   
     70. A(C  16,C  17,H  22)          110.0788         0.322603   
     71. A(C  18,C  17,H  22)          110.6513         0.319792   
     72. A(C  16,C  17,O  23)          113.1359         0.348677   
     73. A(C  18,C  17,O  23)          112.8414         0.345552   
     74. A(H  22,C  17,O  23)          108.3594         0.311102   
     75. A(C  17,C  18,C  19)          103.1282         0.355175   
     76. A(C  17,C  18,H  24)          112.8119         0.319977   
     77. A(C  19,C  18,H  24)          112.4390         0.319618   
     78. A(C  17,C  18,H  25)          110.0834         0.319686   
     79. A(C  19,C  18,H  25)          110.7014         0.319327   
     80. A(H  24,C  18,H  25)          107.6754         0.288869   
     81. A(C  18,C  19,O  20)          106.5215         0.361617   
     82. A(C  18,C  19,H  26)          112.5204         0.319687   
     83. A(O  20,C  19,H  26)          109.1681         0.325637   
     84. A(C  18,C  19,H  27)          112.4303         0.319973   
     85. A(O  20,C  19,H  27)          107.1541         0.325931   
     86. A(H  26,C  19,H  27)          108.8464         0.289489   
     87. A(C  16,O  20,C  19)          108.3126         0.371288   
     88. A(C  17,O  23,H  28)          109.5898         0.303167   
     89. D(H   7,C   1,C   0,H   5)     82.1535         0.010890   
     90. D(C   2,C   1,C   0,O  15)     79.0888         0.010890   
     91. D(H   7,C   1,C   0,O  15)    -42.1860         0.010890   
     92. D(H   6,C   1,C   0,O   4)     77.3246         0.010890   
     93. D(H   6,C   1,C   0,O  15)   -163.5721         0.010890   
     94. D(H   6,C   1,C   0,H   5)    -39.2326         0.010890   
     95. D(H   7,C   1,C   0,O   4)   -161.2893         0.010890   
     96. D(C   2,C   1,C   0,O   4)    -40.0146         0.010890 C 
     97. D(C   2,C   1,C   0,H   5)   -156.5718         0.010890   
     98. D(H   9,C   2,C   1,H   6)    160.0777         0.009912   
     99. D(H   8,C   2,C   1,C   0)    156.5478         0.009912   
    100. D(H   8,C   2,C   1,H   6)     39.6450         0.009912   
    101. D(C   3,C   2,C   1,C   0)     35.0268         0.009912 C 
    102. D(H   8,C   2,C   1,H   7)    -81.9750         0.009912   
    103. D(H   9,C   2,C   1,C   0)    -83.0196         0.009912   
    104. D(C   3,C   2,C   1,H   6)    -81.8760         0.009912   
    105. D(H   9,C   2,C   1,H   7)     38.4577         0.009912   
    106. D(C   3,C   2,C   1,H   7)    156.5040         0.009912   
    107. D(H  11,C   3,C   2,H   9)   -143.4626         0.009774   
    108. D(O   4,C   3,C   2,H   8)   -140.0068         0.009774   
    109. D(O   4,C   3,C   2,H   9)     99.4741         0.009774   
    110. D(H  10,C   3,C   2,C   1)   -137.7432         0.009774   
    111. D(H  10,C   3,C   2,H   8)    100.4467         0.009774   
    112. D(H  10,C   3,C   2,H   9)    -20.0724         0.009774   
    113. D(H  11,C   3,C   2,C   1)     98.8666         0.009774   
    114. D(O   4,C   3,C   2,C   1)    -18.1967         0.009774 C 
    115. D(H  11,C   3,C   2,H   8)    -22.9435         0.009774   
    116. D(C   3,O   4,C   0,C   1)     29.5920         0.014035 C 
    117. D(C   3,O   4,C   0,H   5)    151.2040         0.014035   
    118. D(C   3,O   4,C   0,O  15)    -90.0765         0.014035   
    119. D(C   0,O   4,C   3,C   2)     -6.8730         0.012866 C 
    120. D(C   0,O   4,C   3,H  10)    114.8547         0.012866   
    121. D(C   0,O   4,C   3,H  11)   -127.4270         0.012866   
    122. D(C   0,O  15,C  12,C  16)     90.0000         0.007756 C 
    123. D(C  12,O  15,C   0,O   4)   -120.0000         0.007793 C 
    124. D(C  12,O  15,C   0,H   5)     -2.5899         0.007793   
    125. D(C   0,O  15,C  12,H  14)    -30.5411         0.007756   
    126. D(C   0,O  15,C  12,H  13)   -149.5156         0.007756   
    127. D(C  12,O  15,C   0,C   1)    124.6819         0.007793   
    128. D(C  17,C  16,C  12,H  13)    -56.3233         0.009477   
    129. D(H  21,C  16,C  12,H  14)     59.4937         0.009477   
    130. D(C  17,C  16,C  12,O  15)     64.7192         0.009477   
    131. D(O  20,C  16,C  12,H  13)     58.9756         0.009477   
    132. D(O  20,C  16,C  12,H  14)    -57.8671         0.009477   
    133. D(O  20,C  16,C  12,O  15)   -179.9818         0.009477 C 
    134. D(C  17,C  16,C  12,H  14)   -173.1661         0.009477   
    135. D(H  21,C  16,C  12,H  13)    176.3365         0.009477   
    136. D(H  21,C  16,C  12,O  15)    -62.6209         0.009477   
    137. D(C  18,C  17,C  16,C  12)     79.0473         0.010938   
    138. D(C  18,C  17,C  16,O  20)    -40.0193         0.010938 C 
    139. D(C  18,C  17,C  16,H  21)   -156.5816         0.010938   
    140. D(H  22,C  17,C  16,C  12)   -163.6319         0.010938   
    141. D(H  22,C  17,C  16,O  20)     77.3015         0.010938   
    142. D(H  22,C  17,C  16,H  21)    -39.2608         0.010938   
    143. D(O  23,C  17,C  16,C  12)    -42.2412         0.010938   
    144. D(O  23,C  17,C  16,O  20)   -161.3078         0.010938   
    145. D(O  23,C  17,C  16,H  21)     82.1299         0.010938   
    146. D(H  24,C  18,C  17,O  23)    -81.9035         0.009902   
    147. D(C  19,C  18,C  17,H  22)    -81.8563         0.009902   
    148. D(C  19,C  18,C  17,O  23)    156.5428         0.009902   
    149. D(H  24,C  18,C  17,C  16)    156.6032         0.009902   
    150. D(C  19,C  18,C  17,C  16)     35.0495         0.009902 C 
    151. D(H  24,C  18,C  17,H  22)     39.6974         0.009902   
    152. D(H  25,C  18,C  17,C  16)    -83.0989         0.009902   
    153. D(H  25,C  18,C  17,H  22)    159.9953         0.009902   
    154. D(H  25,C  18,C  17,O  23)     38.3944         0.009902   
    155. D(H  27,C  19,C  18,H  25)   -143.4151         0.009778   
    156. D(O  20,C  19,C  18,H  24)   -140.0178         0.009778   
    157. D(O  20,C  19,C  18,H  25)     99.5028         0.009778   
    158. D(H  26,C  19,C  18,C  17)   -137.7991         0.009778   
    159. D(H  26,C  19,C  18,H  24)    100.3954         0.009778   
    160. D(H  26,C  19,C  18,H  25)    -20.0839         0.009778   
    161. D(H  27,C  19,C  18,C  17)     98.8698         0.009778   
    162. D(O  20,C  19,C  18,C  17)    -18.2123         0.009778 C 
    163. D(H  27,C  19,C  18,H  24)    -22.9357         0.009778   
    164. D(C  19,O  20,C  16,C  12)    -90.0631         0.013988   
    165. D(C  19,O  20,C  16,C  17)     29.5921         0.013988 C 
    166. D(C  19,O  20,C  16,H  21)    151.2606         0.013988   
    167. D(C  16,O  20,C  19,C  18)     -6.8539         0.012896 C 
    168. D(C  16,O  20,C  19,H  26)    114.8861         0.012896   
    169. D(C  16,O  20,C  19,H  27)   -127.3898         0.012896   
    170. D(H  28,O  23,C  17,C  16)     57.6304         0.007747   
    171. D(H  28,O  23,C  17,C  18)    -57.1268         0.007747   
    172. D(H  28,O  23,C  17,H  22)    179.9852         0.007747   
    -----------------------------------------------------------------

Number of atoms                         .... 29
Number of degrees of freedom            .... 172

Time needed for optimization step       :     1.67 sec

         *************************************************************
         *                GEOMETRY OPTIMIZATION CYCLE   1            *
         *************************************************************
---------------------------------
CARTESIAN COORDINATES (ANGSTROEM)
---------------------------------
  C    -21.047987   26.222123   46.250848
  C    -20.361027   27.558171   45.944020
  C    -20.329007   28.221952   47.341114
  C    -20.109960   27.021827   48.295949
  O    -20.472956   25.806920   47.534776
  H    -20.832990   25.428198   45.532765
  H    -19.344028   27.382249   45.575977
  H    -20.898052   28.157264   45.201113
  H    -19.543019   28.977953   47.434205
  H    -21.289013   28.709900   47.548205
  H    -20.732943   27.081691   49.194971
  H    -19.063952   26.912807   48.596914
  C    -23.429957   25.482898   45.441966
  H    -24.363976   25.995833   45.182909
  H    -22.883929   25.273853   44.512993
  O    -22.585996   26.394000   46.374902
  C    -23.787001   24.119977   46.097106
  C    -24.698052   24.309117   47.315045
  C    -26.076019   24.524049   46.644959
  C    -26.011972   23.598912   45.404063
  O    -24.581962   23.300878   45.175159
  H    -22.867014   23.568992   46.301203
  H    -24.703085   23.399184   47.926145
  O    -24.273084   25.501213   48.215932
  H    -26.913050   24.278127   47.306949
  H    -26.188000   25.572016   46.341838
  H    -26.428930   24.069816   44.507993
  H    -26.517986   22.643933   45.569146
  H    -24.261051   26.423148   47.623831

----------------------------
CARTESIAN COORDINATES (A.U.)
----------------------------
  NO LB      ZA    FRAG     MASS         X           Y           Z
   0 C     6.0000    0    12.011  -39.774930   49.552632   87.401437
   1 C     6.0000    0    12.011  -38.476764   52.077397   86.821615
   2 C     6.0000    0    12.011  -38.416256   53.331760   89.461740
   3 C     6.0000    0    12.011  -38.002317   51.063853   91.266118
   4 O     8.0000    0    15.999  -38.688281   48.768011   89.827709
   5 H     1.0000    0     1.008  -39.368646   48.052329   86.044456
   6 H     1.0000    0     1.008  -36.554916   51.744952   86.126116
   7 H     1.0000    0     1.008  -39.491595   53.209518   85.417725
   8 H     1.0000    0     1.008  -36.930954   54.760395   89.637658
   9 H     1.0000    0     1.008  -40.230405   54.253849   89.853086
  10 H     1.0000    0     1.008  -39.179584   51.176980   92.965022
  11 H     1.0000    0     1.008  -36.025649   50.857834   91.834858
  12 C     6.0000    0    12.011  -44.276201   48.155698   85.872871
  13 H     1.0000    0     1.008  -46.041243   49.125005   85.383325
  14 H     1.0000    0     1.008  -43.244359   47.760661   84.117366
  15 O     8.0000    0    15.999  -42.681347   49.877431   87.635865
  16 C     6.0000    0    12.011  -44.950918   45.580150   87.110906
  17 C     6.0000    0    12.011  -46.672554   45.937573   89.412477
  18 C     6.0000    0    12.011  -49.276535   46.343736   88.146198
  19 C     6.0000    0    12.011  -49.155504   44.595480   85.801245
  20 O     8.0000    0    15.999  -46.453177   44.032277   85.368678
  21 H     1.0000    0     1.008  -43.212394   44.538939   87.496593
  22 H     1.0000    0     1.008  -46.682065   44.218050   90.567289
  23 O     8.0000    0    15.999  -45.869480   48.190309   91.114907
  24 H     1.0000    0     1.008  -50.858294   45.879011   89.397178
  25 H     1.0000    0     1.008  -49.488147   48.324107   87.573382
  26 H     1.0000    0     1.008  -49.943441   45.485360   84.107918
  27 H     1.0000    0     1.008  -50.111730   42.790832   86.113207
  28 H     1.0000    0     1.008  -45.846743   49.932513   89.995998

--------------------------------
INTERNAL COORDINATES (ANGSTROEM)
--------------------------------
 C      0   0   0     0.000000000000     0.00000000     0.00000000
 C      1   0   0     1.533334275362     0.00000000     0.00000000
 C      2   1   0     1.547103422529   101.67907390     0.00000000
 C      3   2   1     1.549188819996   103.12737509    35.02687180
 O      1   2   3     1.466801281701   104.24948604   319.98542309
 H      1   2   3     1.091872245274   114.43876658   203.42640133
 H      2   1   3     1.095759553917   110.06782188   117.34000099
 H      2   1   3     1.095088580892   113.12442239   238.72597460
 H      3   2   1     1.094523183857   112.83161078   156.54780790
 H      3   2   1     1.096628013503   110.07982737   276.98070077
 H      4   3   2     1.095413164062   112.52534669   222.25678475
 H      4   3   2     1.093891219455   112.45670684    98.86663270
 C      6   1   2     2.599175830913    79.09917363   235.95714621
 H     13   6   1     1.096633940748   150.36022249    67.19668150
 H     13   6   1     1.097651128547    61.87434799   144.36191086
 O      1   2   3     1.552547583812   111.30349807    79.08752829
 C     13   6   1     1.553783446945   101.31764310   248.52072365
 C     17  13   6     1.532698926730   111.30861610   122.98594116
 C     18  17  13     1.547258543360   101.67598632    79.04709702
 C     19  18  17     1.549129432940   103.12802040    35.04950805
 O     17  13   6     1.467266165357   110.44083182   238.28446804
 H     17  13   6     1.091612110596   109.14252052   355.64604787
 H     18  17  13     1.096104921985   110.07876035   196.36800501
 O     18  17  13     1.553476745883   113.13588649   317.75867978
 H     19  18  17     1.095138803988   112.81192970   156.60322059
 H     19  18  17     1.096657193475   110.08346200   276.90112688
 H     20  19  18     1.094781256690   112.52040684   222.20093667
 H     20  19  18     1.093291360983   112.43023536    98.86982475
 H     24  18  17     1.095760922829   109.58975379    57.63045165

---------------------------
INTERNAL COORDINATES (A.U.)
---------------------------
 C      0   0   0     0.000000000000     0.00000000     0.00000000
 C      1   0   0     2.897581852189     0.00000000     0.00000000
 C      2   1   0     2.923601769431   101.67907390     0.00000000
 C      3   2   1     2.927542599525   103.12737509    35.02687180
 O      1   2   3     2.771852715300   104.24948604   319.98542309
 H      1   2   3     2.063339516798   114.43876658   203.42640133
 H      2   1   3     2.070685465531   110.06782188   117.34000099
 H      2   1   3     2.069417510270   113.12442239   238.72597460
 H      3   2   1     2.068349064717   112.83161078   156.54780790
 H      3   2   1     2.072326616307   110.07982737   276.98070077
 H      4   3   2     2.070030883569   112.52534669   222.25678475
 H      4   3   2     2.067154825070   112.45670684    98.86663270
 C      6   1   2     4.911730494332    79.09917363   235.95714621
 H     13   6   1     2.072337817176   150.36022249    67.19668150
 H     13   6   1     2.074260023543    61.87434799   144.36191086
 O      1   2   3     2.933889743286   111.30349807    79.08752829
 C     13   6   1     2.936225186146   101.31764310   248.52072365
 C     17  13   6     2.896381217275   111.30861610   122.98594116
 C     18  17  13     2.923894905320   101.67598632    79.04709702
 C     19  18  17     2.927430374253   103.12802040    35.04950805
 O     17  13   6     2.772731218093   110.44083182   238.28446804
 H     17  13   6     2.062847933498   109.14252052   355.64604787
 H     18  17  13     2.071338116595   110.07876035   196.36800501
 O     18  17  13     2.935645605135   113.13588649   317.75867978
 H     19  18  17     2.069512418167   112.81192970   156.60322059
 H     19  18  17     2.072381758462   110.08346200   276.90112688
 H     20  19  18     2.068836751694   112.52040684   222.20093667
 H     20  19  18     2.066021256840   112.43023536    98.86982475
 H     24  18  17     2.070688052400   109.58975379    57.63045165

---------------------
BASIS SET INFORMATION
---------------------
There are 3 groups of distinct atoms

 Group   1 Type C   : 10s4p contracted to 3s2p pattern {631/31}
 Group   2 Type O   : 10s4p contracted to 3s2p pattern {631/31}
 Group   3 Type H   : 4s contracted to 2s pattern {31}

Atom   0C    basis set group =>   1
Atom   1C    basis set group =>   1
Atom   2C    basis set group =>   1
Atom   3C    basis set group =>   1
Atom   4O    basis set group =>   2
Atom   5H    basis set group =>   3
Atom   6H    basis set group =>   3
Atom   7H    basis set group =>   3
Atom   8H    basis set group =>   3
Atom   9H    basis set group =>   3
Atom  10H    basis set group =>   3
Atom  11H    basis set group =>   3
Atom  12C    basis set group =>   1
Atom  13H    basis set group =>   3
Atom  14H    basis set group =>   3
Atom  15O    basis set group =>   2
Atom  16C    basis set group =>   1
Atom  17C    basis set group =>   1
Atom  18C    basis set group =>   1
Atom  19C    basis set group =>   1
Atom  20O    basis set group =>   2
Atom  21H    basis set group =>   3
Atom  22H    basis set group =>   3
Atom  23O    basis set group =>   2
Atom  24H    basis set group =>   3
Atom  25H    basis set group =>   3
Atom  26H    basis set group =>   3
Atom  27H    basis set group =>   3
Atom  28H    basis set group =>   3
------------------------------------------------------------------------------
                           ORCA GTO INTEGRAL CALCULATION
------------------------------------------------------------------------------

                         BASIS SET STATISTICS AND STARTUP INFO

 # of primitive gaussian shells          ...  246
 # of primitive gaussian functions       ...  350
 # of contracted shells                  ...   97
 # of contracted basis functions         ...  149
 Highest angular momentum                ...    1
 Maximum contraction depth               ...    6
 Integral package used                   ... LIBINT
 Integral threshhold            Thresh   ...  2.500e-11
 Primitive cut-off              TCut     ...  2.500e-12


------------------------------ INTEGRAL EVALUATION ----------------------------


 * One electron integrals 
 Pre-screening matrix                    ... done
 Shell pair data                         ... done (   0.002 sec)

-------------------------------------------------------------------------------
                                 ORCA SCF
-------------------------------------------------------------------------------

------------
SCF SETTINGS
------------
Hamiltonian:
 Density Functional     Method          .... DFT(GTOs)
 Exchange Functional    Exchange        .... B88
   X-Alpha parameter    XAlpha          ....  0.666667
   Becke's b parameter  XBeta           ....  0.004200
 Correlation Functional Correlation     .... LYP
 LDA part of GGA corr.  LDAOpt          .... VWN-5
 Gradients option       PostSCFGGA      .... off
 Hybrid DFT is turned on
   Fraction HF Exchange ScalHFX         ....  0.200000
   Scaling of DF-GGA-X  ScalDFX         ....  0.720000
   Scaling of DF-GGA-C  ScalDFC         ....  0.810000
   Scaling of DF-LDA-C  ScalLDAC        ....  1.000000
   Perturbative correction              ....  0.000000
   Density functional embedding theory  .... OFF
   NL short-range parameter             ....  4.800000


General Settings:
 Integral files         IntName         .... project_8051/ensemble_240_90
 Hartree-Fock type      HFTyp           .... RHF
 Total Charge           Charge          ....    0
 Multiplicity           Mult            ....    1
 Number of Electrons    NEL             ....  102
 Basis Dimension        Dim             ....  149
 Nuclear Repulsion      ENuc            ....    867.7201012349 Eh

Convergence Acceleration:
 DIIS                   CNVDIIS         .... on
   Start iteration      DIISMaxIt       ....    12
   Startup error        DIISStart       ....  0.200000
   # of expansion vecs  DIISMaxEq       ....     5
   Bias factor          DIISBfac        ....   1.050
   Max. coefficient     DIISMaxC        ....  10.000
 Newton-Raphson         CNVNR           .... off
 SOSCF                  CNVSOSCF        .... on
   Start iteration      SOSCFMaxIt      ....   150
   Startup grad/error   SOSCFStart      ....  0.003300
 Level Shifting         CNVShift        .... on
   Level shift para.    LevelShift      ....    0.2500
   Turn off err/grad.   ShiftErr        ....    0.0010
 Zerner damping         CNVZerner       .... off
 Static damping         CNVDamp         .... on
   Fraction old density DampFac         ....    0.7000
   Max. Damping (<1)    DampMax         ....    0.9800
   Min. Damping (>=0)   DampMin         ....    0.0000
   Turn off err/grad.   DampErr         ....    0.1000
 Fernandez-Rico         CNVRico         .... off

SCF Procedure:
 Maximum # iterations   MaxIter         ....   125
 SCF integral mode      SCFMode         .... Direct
   Integral package                     .... LIBINT
 Reset frequency        DirectResetFreq ....    20
 Integral Threshold     Thresh          ....  2.500e-11 Eh
 Primitive CutOff       TCut            ....  2.500e-12 Eh

Convergence Tolerance:
 Convergence Check Mode ConvCheckMode   .... Total+1el-Energy
 Convergence forced     ConvForced      .... 0
 Energy Change          TolE            ....  1.000e-08 Eh
 1-El. energy change                    ....  1.000e-05 Eh
 Orbital Gradient       TolG            ....  1.000e-05
 Orbital Rotation angle TolX            ....  1.000e-05
 DIIS Error             TolErr          ....  5.000e-07


Diagonalization of the overlap matrix:
Smallest eigenvalue                        ... 4.126e-03
Time for diagonalization                   ...    0.007 sec
Threshold for overlap eigenvalues          ... 1.000e-08
Number of eigenvalues below threshold      ... 0
Time for construction of square roots      ...    0.902 sec
Total time needed                          ...    0.909 sec

-------------------
DFT GRID GENERATION
-------------------

General Integration Accuracy     IntAcc      ...  4.340
Radial Grid Type                 RadialGrid  ... Gauss-Chebyshev
Angular Grid (max. acc.)         AngularGrid ... Lebedev-110
Angular grid pruning method      GridPruning ... 3 (G Style)
Weight generation scheme         WeightScheme... Becke
Basis function cutoff            BFCut       ...    1.0000e-11
Integration weight cutoff        WCut        ...    1.0000e-14
Grids for H and He will be reduced by one unit

# of grid points (after initial pruning)     ...  34472 (   0.0 sec)
# of grid points (after weights+screening)   ...  31037 (   0.3 sec)
nearest neighbour list constructed           ...    0.0 sec
Grid point re-assignment to atoms done       ...    0.0 sec
Grid point division into batches done        ...    0.0 sec
Reduced shell lists constructed in    0.3 sec

Total number of grid points                  ...    31037
Total number of batches                      ...      501
Average number of points per batch           ...       61
Average number of grid points per atom       ...     1070
Average number of shells per batch           ...    57.88 (59.67%)
Average number of basis functions per batch  ...    93.97 (63.07%)
Average number of large shells per batch     ...    40.86 (70.60%)
Average number of large basis fcns per batch ...    67.75 (72.10%)
Maximum spatial batch extension              ...  21.38, 20.09, 18.93 au
Average spatial batch extension              ...   3.31,  3.45,  3.34 au

Time for grid setup =    4.015 sec

------------------------------
INITIAL GUESS: MODEL POTENTIAL
------------------------------
Loading Hartree-Fock densities                     ... done
Calculating cut-offs                               ... done
Setting up the integral package                    ... done
Initializing the effective Hamiltonian             ... done
Starting the Coulomb interaction                   ... done (   0.3 sec)
Reading the grid                                   ... done
Mapping shells                                     ... done
Starting the XC term evaluation                    ... done (   0.4 sec)
  promolecular density results
     # of electrons  =    102.006919284
     EX              =    -83.668249894
     EC              =     -3.458241850
     EX+EC           =    -87.126491744
Transforming the Hamiltonian                       ... done (   0.1 sec)
Diagonalizing the Hamiltonian                      ... done (   0.0 sec)
Back transforming the eigenvectors                 ... done (   0.0 sec)
Now organizing SCF variables                       ... done
                      ------------------
                      INITIAL GUESS DONE (   8.0 sec)
                      ------------------
--------------
SCF ITERATIONS
--------------
ITER       Energy         Delta-E        Max-DP      RMS-DP      [F,P]     Damp
               ***  Starting incremental Fock matrix formation  ***
  0   -652.5389155219   0.000000000000 0.07438611  0.00297956  0.2281459 0.7000
  1   -652.6758942483  -0.136978726435 0.04128110  0.00204665  0.0959533 0.7000
                               ***Turning on DIIS***
  2   -652.7280981594  -0.052203911121 0.05368892  0.00332726  0.0298556 0.0000
  3   -652.8131174173  -0.085019257836 0.03004523  0.00133037  0.0516764 0.0000
  4   -652.8304866036  -0.017369186376 0.00853325  0.00041921  0.0090506 0.0000
  5   -652.8314316435  -0.000945039872 0.00280533  0.00012856  0.0041797 0.0000
                      *** Initiating the SOSCF procedure ***
                           *** Shutting down DIIS ***
                      *** Re-Reading the Fockian *** 
                      *** Removing any level shift *** 
ITER      Energy       Delta-E        Grad      Rot      Max-DP    RMS-DP
  6   -652.83150448  -0.0000728332  0.000185  0.000185  0.000908  0.000054
               *** Restarting incremental Fock matrix formation ***
  7   -652.83150764  -0.0000031647  0.000106  0.000146  0.000856  0.000027
  8   -652.83150666   0.0000009800  0.000163  0.000118  0.000465  0.000016
  9   -652.83150865  -0.0000019894  0.000023  0.000039  0.000166  0.000006
 10   -652.83150858   0.0000000746  0.000032  0.000024  0.000094  0.000004
 11   -652.83150870  -0.0000001234  0.000005  0.000005  0.000030  0.000001
 12   -652.83150870   0.0000000012  0.000008  0.000003  0.000019  0.000001
                  ***Gradient check signals convergence***
              ***Rediagonalizing the Fockian in SOSCF/NRSCF***

               *****************************************************
               *                     SUCCESS                       *
               *           SCF CONVERGED AFTER  13 CYCLES          *
               *****************************************************

Setting up the final grid:

General Integration Accuracy     IntAcc      ...  4.670
Radial Grid Type                 RadialGrid  ... Gauss-Chebyshev
Angular Grid (max. acc.)         AngularGrid ... Lebedev-302
Angular grid pruning method      GridPruning ... 3 (G Style)
Weight generation scheme         WeightScheme... Becke
Basis function cutoff            BFCut       ...    1.0000e-11
Integration weight cutoff        WCut        ...    1.0000e-14
Grids for H and He will be reduced by one unit

# of grid points (after initial pruning)     ... 135060 (   0.1 sec)
# of grid points (after weights+screening)   ... 119070 (   0.8 sec)
nearest neighbour list constructed           ...    0.0 sec
Grid point re-assignment to atoms done       ...    0.0 sec
Grid point division into batches done        ...    0.5 sec
Reduced shell lists constructed in    1.5 sec

Total number of grid points                  ...   119070
Total number of batches                      ...     1874
Average number of points per batch           ...       63
Average number of grid points per atom       ...     4106
Average number of shells per batch           ...    52.72 (54.35%)
Average number of basis functions per batch  ...    85.91 (57.65%)
Average number of large shells per batch     ...    36.51 (69.25%)
Average number of large basis fcns per batch ...    60.66 (70.62%)
Maximum spatial batch extension              ...  19.18, 20.63, 19.29 au
Average spatial batch extension              ...   2.19,  2.26,  2.24 au

Final grid set up in    2.6 sec
Final integration                            ... done (  10.6 sec)
Change in XC energy                          ...     0.000710979
Integrated number of electrons               ...   102.000006155
Previous integrated no of electrons          ...   102.007043029

----------------
TOTAL SCF ENERGY
----------------

Total Energy       :         -652.83079772 Eh          -17764.42913 eV

Components:
Nuclear Repulsion  :          867.72010123 Eh           23611.86436 eV
Electronic Energy  :        -1520.55089896 Eh          -41376.29349 eV
One Electron Energy:        -2613.57745234 Eh          -71119.05810 eV
Two Electron Energy:         1093.02655338 Eh           29742.76461 eV

Virial components:
Potential Energy   :        -1301.76840736 Eh          -35422.91923 eV
Kinetic Energy     :          648.93760963 Eh           17658.49010 eV
Virial Ratio       :            2.00599933


DFT components:
N(Alpha)           :       51.000003077362 electrons
N(Beta)            :       51.000003077362 electrons
N(Total)           :      102.000006154724 electrons
E(X)               :      -67.591056050745 Eh       
E(C)               :       -4.069936793856 Eh       
E(XC)              :      -71.660992844601 Eh       
DFET-embed. en.    :        0.000000000000 Eh       

---------------
SCF CONVERGENCE
---------------

  Last Energy change         ...   -2.1558e-09  Tolerance :   1.0000e-08
  Last MAX-Density change    ...    2.4952e-06  Tolerance :   1.0000e-07
  Last RMS-Density change    ...    1.0129e-07  Tolerance :   5.0000e-09
  Last Orbital Gradient      ...    4.2646e-07  Tolerance :   1.0000e-05
  Last Orbital Rotation      ...    6.9740e-07  Tolerance :   1.0000e-05

             **** THE GBW FILE WAS UPDATED (project_8051/ensemble_240_90.gbw) ****
             **** DENSITY FILE WAS UPDATED (project_8051/ensemble_240_90.scfp) ****
             **** ENERGY FILE WAS UPDATED (project_8051/ensemble_240_90.en.tmp) ****
             **** THE GBW FILE WAS UPDATED (project_8051/ensemble_240_90.gbw) ****
             **** DENSITY FILE WAS UPDATED (project_8051/ensemble_240_90.scfp) ****
----------------
ORBITAL ENERGIES
----------------

  NO   OCC          E(Eh)            E(eV) 
   0   2.0000     -19.148066      -521.0454 
   1   2.0000     -19.145326      -520.9708 
   2   2.0000     -19.143601      -520.9239 
   3   2.0000     -19.124933      -520.4159 
   4   2.0000     -10.286772      -279.9173 
   5   2.0000     -10.236991      -278.5627 
   6   2.0000     -10.235548      -278.5234 
   7   2.0000     -10.232361      -278.4367 
   8   2.0000     -10.230533      -278.3869 
   9   2.0000     -10.223317      -278.1906 
  10   2.0000     -10.191652      -277.3290 
  11   2.0000     -10.189067      -277.2586 
  12   2.0000     -10.187215      -277.2082 
  13   2.0000      -1.032431       -28.0939 
  14   2.0000      -1.026620       -27.9358 
  15   2.0000      -0.968680       -26.3591 
  16   2.0000      -0.944920       -25.7126 
  17   2.0000      -0.787721       -21.4350 
  18   2.0000      -0.776169       -21.1206 
  19   2.0000      -0.760434       -20.6925 
  20   2.0000      -0.730525       -19.8786 
  21   2.0000      -0.674667       -18.3586 
  22   2.0000      -0.599365       -16.3096 
  23   2.0000      -0.597227       -16.2514 
  24   2.0000      -0.591400       -16.0928 
  25   2.0000      -0.567797       -15.4505 
  26   2.0000      -0.518914       -14.1204 
  27   2.0000      -0.507283       -13.8039 
  28   2.0000      -0.487819       -13.2742 
  29   2.0000      -0.477351       -12.9894 
  30   2.0000      -0.457938       -12.4611 
  31   2.0000      -0.445727       -12.1288 
  32   2.0000      -0.440400       -11.9839 
  33   2.0000      -0.429662       -11.6917 
  34   2.0000      -0.414489       -11.2788 
  35   2.0000      -0.405702       -11.0397 
  36   2.0000      -0.402249       -10.9458 
  37   2.0000      -0.394197       -10.7266 
  38   2.0000      -0.372336       -10.1318 
  39   2.0000      -0.359330        -9.7779 
  40   2.0000      -0.357259        -9.7215 
  41   2.0000      -0.353708        -9.6249 
  42   2.0000      -0.345136        -9.3916 
  43   2.0000      -0.326663        -8.8889 
  44   2.0000      -0.320965        -8.7339 
  45   2.0000      -0.313061        -8.5188 
  46   2.0000      -0.294375        -8.0103 
  47   2.0000      -0.273847        -7.4518 
  48   2.0000      -0.256945        -6.9918 
  49   2.0000      -0.247562        -6.7365 
  50   2.0000      -0.227624        -6.1940 
  51   0.0000       0.035253         0.9593 
  52   0.0000       0.071450         1.9442 
  53   0.0000       0.082665         2.2494 
  54   0.0000       0.095774         2.6061 
  55   0.0000       0.099093         2.6964 
  56   0.0000       0.107424         2.9232 
  57   0.0000       0.114929         3.1274 
  58   0.0000       0.121928         3.3178 
  59   0.0000       0.128715         3.5025 
  60   0.0000       0.140678         3.8280 
  61   0.0000       0.144394         3.9291 
  62   0.0000       0.153420         4.1748 
  63   0.0000       0.156126         4.2484 
  64   0.0000       0.159403         4.3376 
  65   0.0000       0.166473         4.5300 
  66   0.0000       0.170669         4.6441 
  67   0.0000       0.174820         4.7571 
  68   0.0000       0.191084         5.1997 
  69   0.0000       0.194100         5.2817 
  70   0.0000       0.200210         5.4480 
  71   0.0000       0.220647         6.0041 
  72   0.0000       0.225809         6.1446 
  73   0.0000       0.232536         6.3276 
  74   0.0000       0.237433         6.4609 
  75   0.0000       0.252466         6.8700 
  76   0.0000       0.262734         7.1494 
  77   0.0000       0.269520         7.3340 
  78   0.0000       0.279239         7.5985 
  79   0.0000       0.288817         7.8591 
  80   0.0000       0.301946         8.2164 
  81   0.0000       0.522462        14.2169 
  82   0.0000       0.527348        14.3499 
  83   0.0000       0.540377        14.7044 
  84   0.0000       0.549788        14.9605 
  85   0.0000       0.555489        15.1156 
  86   0.0000       0.565987        15.4013 
  87   0.0000       0.576476        15.6867 
  88   0.0000       0.583091        15.8667 
  89   0.0000       0.591190        16.0871 
  90   0.0000       0.596474        16.2309 
  91   0.0000       0.605555        16.4780 
  92   0.0000       0.614865        16.7313 
  93   0.0000       0.626448        17.0465 
  94   0.0000       0.642171        17.4744 
  95   0.0000       0.646796        17.6002 
  96   0.0000       0.656426        17.8623 
  97   0.0000       0.672204        18.2916 
  98   0.0000       0.679029        18.4773 
  99   0.0000       0.710689        19.3388 
 100   0.0000       0.740544        20.1512 
 101   0.0000       0.755985        20.5714 
 102   0.0000       0.793042        21.5798 
 103   0.0000       0.805987        21.9320 
 104   0.0000       0.819393        22.2968 
 105   0.0000       0.822924        22.3929 
 106   0.0000       0.835610        22.7381 
 107   0.0000       0.849433        23.1142 
 108   0.0000       0.862260        23.4633 
 109   0.0000       0.873232        23.7618 
 110   0.0000       0.880741        23.9662 
 111   0.0000       0.893094        24.3023 
 112   0.0000       0.898036        24.4368 
 113   0.0000       0.908495        24.7214 
 114   0.0000       0.917776        24.9739 
 115   0.0000       0.926073        25.1997 
 116   0.0000       0.939047        25.5528 
 117   0.0000       0.950245        25.8575 
 118   0.0000       0.953603        25.9488 
 119   0.0000       0.960868        26.1465 
 120   0.0000       0.966450        26.2984 
 121   0.0000       0.985608        26.8198 
 122   0.0000       0.988705        26.9040 
 123   0.0000       1.011880        27.5347 
 124   0.0000       1.017851        27.6971 
 125   0.0000       1.026149        27.9229 
 126   0.0000       1.058621        28.8065 
 127   0.0000       1.090781        29.6817 
 128   0.0000       1.132602        30.8197 
 129   0.0000       1.161027        31.5932 
 130   0.0000       1.207863        32.8676 
 131   0.0000       1.236983        33.6600 
 132   0.0000       1.254603        34.1395 
 133   0.0000       1.298870        35.3440 
 134   0.0000       1.327273        36.1169 
 135   0.0000       1.363494        37.1026 
 136   0.0000       1.374808        37.4104 
 137   0.0000       1.415983        38.5309 
 138   0.0000       1.449848        39.4524 
 139   0.0000       1.462613        39.7997 
 140   0.0000       1.481228        40.3063 
 141   0.0000       1.574142        42.8346 
 142   0.0000       1.605584        43.6902 
 143   0.0000       1.656048        45.0633 
 144   0.0000       1.766881        48.0793 
 145   0.0000       1.813320        49.3429 
 146   0.0000       1.983885        53.9842 
 147   0.0000       2.042567        55.5811 
 148   0.0000       2.103696        57.2445 

                    ********************************
                    * MULLIKEN POPULATION ANALYSIS *
                    ********************************

-----------------------
MULLIKEN ATOMIC CHARGES
-----------------------
   0 C :    0.288407
   1 C :   -0.266358
   2 C :   -0.303121
   3 C :   -0.000962
   4 O :   -0.494898
   5 H :    0.148577
   6 H :    0.150481
   7 H :    0.152426
   8 H :    0.142412
   9 H :    0.161431
  10 H :    0.160571
  11 H :    0.140321
  12 C :   -0.075990
  13 H :    0.144677
  14 H :    0.152825
  15 O :   -0.515022
  16 C :    0.083503
  17 C :    0.095826
  18 C :   -0.320169
  19 C :   -0.015809
  20 O :   -0.517768
  21 H :    0.166733
  22 H :    0.160598
  23 O :   -0.587512
  24 H :    0.156308
  25 H :    0.140160
  26 H :    0.141012
  27 H :    0.151545
  28 H :    0.359795
Sum of atomic charges:   -0.0000000

--------------------------------
MULLIKEN REDUCED ORBITAL CHARGES
--------------------------------
  0 C s       :     3.227627  s :     3.227627
      pz      :     0.804494  p :     2.483966
      px      :     0.685530
      py      :     0.993943
  1 C s       :     3.306310  s :     3.306310
      pz      :     0.988070  p :     2.960048
      px      :     1.029620
      py      :     0.942358
  2 C s       :     3.316867  s :     3.316867
      pz      :     0.906199  p :     2.986254
      px      :     1.087134
      py      :     0.992920
  3 C s       :     3.261216  s :     3.261216
      pz      :     0.944979  p :     2.739746
      px      :     1.055656
      py      :     0.739112
  4 O s       :     3.945411  s :     3.945411
      pz      :     1.313665  p :     4.549487
      px      :     1.717601
      py      :     1.518221
  5 H s       :     0.851423  s :     0.851423
  6 H s       :     0.849519  s :     0.849519
  7 H s       :     0.847574  s :     0.847574
  8 H s       :     0.857588  s :     0.857588
  9 H s       :     0.838569  s :     0.838569
 10 H s       :     0.839429  s :     0.839429
 11 H s       :     0.859679  s :     0.859679
 12 C s       :     3.307413  s :     3.307413
      pz      :     0.931185  p :     2.768577
      px      :     0.964480
      py      :     0.872912
 13 H s       :     0.855323  s :     0.855323
 14 H s       :     0.847175  s :     0.847175
 15 O s       :     3.938079  s :     3.938079
      pz      :     1.648390  p :     4.576944
      px      :     1.250079
      py      :     1.678474
 16 C s       :     3.258359  s :     3.258359
      pz      :     0.826298  p :     2.658138
      px      :     0.961003
      py      :     0.870837
 17 C s       :     3.282221  s :     3.282221
      pz      :     0.854526  p :     2.621953
      px      :     0.887847
      py      :     0.879580
 18 C s       :     3.323709  s :     3.323709
      pz      :     0.966211  p :     2.996460
      px      :     1.010565
      py      :     1.019685
 19 C s       :     3.264103  s :     3.264103
      pz      :     1.006539  p :     2.751706
      px      :     0.706904
      py      :     1.038263
 20 O s       :     3.946230  s :     3.946230
      pz      :     1.674968  p :     4.571538
      px      :     1.207294
      py      :     1.689276
 21 H s       :     0.833267  s :     0.833267
 22 H s       :     0.839402  s :     0.839402
 23 O s       :     3.950585  s :     3.950585
      pz      :     1.548944  p :     4.636928
      px      :     1.886283
      py      :     1.201700
 24 H s       :     0.843692  s :     0.843692
 25 H s       :     0.859840  s :     0.859840
 26 H s       :     0.858988  s :     0.858988
 27 H s       :     0.848455  s :     0.848455
 28 H s       :     0.640205  s :     0.640205


                     *******************************
                     * LOEWDIN POPULATION ANALYSIS *
                     *******************************

----------------------
LOEWDIN ATOMIC CHARGES
----------------------
   0 C :    0.186923
   1 C :   -0.220795
   2 C :   -0.217411
   3 C :   -0.027971
   4 O :   -0.305057
   5 H :    0.104983
   6 H :    0.117100
   7 H :    0.121804
   8 H :    0.114077
   9 H :    0.118227
  10 H :    0.112365
  11 H :    0.101296
  12 C :   -0.055407
  13 H :    0.107046
  14 H :    0.109558
  15 O :   -0.362310
  16 C :    0.016547
  17 C :    0.044092
  18 C :   -0.238117
  19 C :   -0.033935
  20 O :   -0.322608
  21 H :    0.119099
  22 H :    0.120290
  23 O :   -0.435769
  24 H :    0.123138
  25 H :    0.107391
  26 H :    0.100284
  27 H :    0.106590
  28 H :    0.288572

-------------------------------
LOEWDIN REDUCED ORBITAL CHARGES
-------------------------------
  0 C s       :     2.980216  s :     2.980216
      pz      :     0.921021  p :     2.832861
      px      :     0.826818
      py      :     1.085022
  1 C s       :     2.978381  s :     2.978381
      pz      :     1.078796  p :     3.242414
      px      :     1.107220
      py      :     1.056398
  2 C s       :     2.973227  s :     2.973227
      pz      :     1.030928  p :     3.244184
      px      :     1.132601
      py      :     1.080654
  3 C s       :     2.983751  s :     2.983751
      pz      :     1.041388  p :     3.044219
      px      :     1.119089
      py      :     0.883742
  4 O s       :     3.609072  s :     3.609072
      pz      :     1.378307  p :     4.695985
      px      :     1.752837
      py      :     1.564840
  5 H s       :     0.895017  s :     0.895017
  6 H s       :     0.882900  s :     0.882900
  7 H s       :     0.878196  s :     0.878196
  8 H s       :     0.885923  s :     0.885923
  9 H s       :     0.881773  s :     0.881773
 10 H s       :     0.887635  s :     0.887635
 11 H s       :     0.898704  s :     0.898704
 12 C s       :     3.008384  s :     3.008384
      pz      :     1.011888  p :     3.047023
      px      :     1.035214
      py      :     0.999921
 13 H s       :     0.892954  s :     0.892954
 14 H s       :     0.890442  s :     0.890442
 15 O s       :     3.658153  s :     3.658153
      pz      :     1.689062  p :     4.704158
      px      :     1.308669
      py      :     1.706426
 16 C s       :     2.968536  s :     2.968536
      pz      :     0.967849  p :     3.014918
      px      :     1.043236
      py      :     1.003833
 17 C s       :     2.971475  s :     2.971475
      pz      :     0.999801  p :     2.984433
      px      :     1.022920
      py      :     0.961713
 18 C s       :     2.981904  s :     2.981904
      pz      :     1.066788  p :     3.256213
      px      :     1.088371
      py      :     1.101053
 19 C s       :     2.982145  s :     2.982145
      pz      :     1.089598  p :     3.051790
      px      :     0.848743
      py      :     1.113450
 20 O s       :     3.603149  s :     3.603149
      pz      :     1.711284  p :     4.719459
      px      :     1.280110
      py      :     1.728065
 21 H s       :     0.880901  s :     0.880901
 22 H s       :     0.879710  s :     0.879710
 23 O s       :     3.691328  s :     3.691328
      pz      :     1.589214  p :     4.744442
      px      :     1.897336
      py      :     1.257892
 24 H s       :     0.876862  s :     0.876862
 25 H s       :     0.892609  s :     0.892609
 26 H s       :     0.899716  s :     0.899716
 27 H s       :     0.893410  s :     0.893410
 28 H s       :     0.711428  s :     0.711428


                      *****************************
                      * MAYER POPULATION ANALYSIS *
                      *****************************

  NA   - Mulliken gross atomic population
  ZA   - Total nuclear charge
  QA   - Mulliken gross atomic charge
  VA   - Mayer's total valence
  BVA  - Mayer's bonded valence
  FA   - Mayer's free valence

  ATOM       NA         ZA         QA         VA         BVA        FA
  0 C      5.7116     6.0000     0.2884     3.6594     3.6594    -0.0000
  1 C      6.2664     6.0000    -0.2664     3.7306     3.7306    -0.0000
  2 C      6.3031     6.0000    -0.3031     3.7663     3.7663     0.0000
  3 C      6.0010     6.0000    -0.0010     3.6523     3.6523    -0.0000
  4 O      8.4949     8.0000    -0.4949     1.8219     1.8219    -0.0000
  5 H      0.8514     1.0000     0.1486     0.9339     0.9339    -0.0000
  6 H      0.8495     1.0000     0.1505     0.9296     0.9296    -0.0000
  7 H      0.8476     1.0000     0.1524     0.9404     0.9404    -0.0000
  8 H      0.8576     1.0000     0.1424     0.9366     0.9366     0.0000
  9 H      0.8386     1.0000     0.1614     0.9324     0.9324     0.0000
 10 H      0.8394     1.0000     0.1606     0.9242     0.9242    -0.0000
 11 H      0.8597     1.0000     0.1403     0.9286     0.9286    -0.0000
 12 C      6.0760     6.0000    -0.0760     3.6630     3.6630    -0.0000
 13 H      0.8553     1.0000     0.1447     0.9382     0.9382     0.0000
 14 H      0.8472     1.0000     0.1528     0.9333     0.9333    -0.0000
 15 O      8.5150     8.0000    -0.5150     1.7943     1.7943    -0.0000
 16 C      5.9165     6.0000     0.0835     3.5403     3.5403    -0.0000
 17 C      5.9042     6.0000     0.0958     3.6787     3.6787     0.0000
 18 C      6.3202     6.0000    -0.3202     3.7211     3.7211     0.0000
 19 C      6.0158     6.0000    -0.0158     3.6471     3.6471     0.0000
 20 O      8.5178     8.0000    -0.5178     1.7620     1.7620     0.0000
 21 H      0.8333     1.0000     0.1667     0.9328     0.9328    -0.0000
 22 H      0.8394     1.0000     0.1606     0.9296     0.9296    -0.0000
 23 O      8.5875     8.0000    -0.5875     1.7775     1.7775     0.0000
 24 H      0.8437     1.0000     0.1563     0.9382     0.9382     0.0000
 25 H      0.8598     1.0000     0.1402     0.9422     0.9422     0.0000
 26 H      0.8590     1.0000     0.1410     0.9262     0.9262     0.0000
 27 H      0.8485     1.0000     0.1515     0.9271     0.9271     0.0000
 28 H      0.6402     1.0000     0.3598     0.8516     0.8516    -0.0000

  Mayer bond orders larger than 0.100000
B(  0-C ,  1-C ) :   0.9378 B(  0-C ,  4-O ) :   0.9331 B(  0-C ,  5-H ) :   0.9189 
B(  0-C , 15-O ) :   0.8203 B(  1-C ,  2-C ) :   0.9583 B(  1-C ,  6-H ) :   0.9332 
B(  1-C ,  7-H ) :   0.9363 B(  2-C ,  3-C ) :   0.9530 B(  2-C ,  8-H ) :   0.9447 
B(  2-C ,  9-H ) :   0.9446 B(  3-C ,  4-O ) :   0.8377 B(  3-C , 10-H ) :   0.9318 
B(  3-C , 11-H ) :   0.9386 B( 12-C , 13-H ) :   0.9334 B( 12-C , 14-H ) :   0.9268 
B( 12-C , 15-O ) :   0.8562 B( 12-C , 16-C ) :   0.8741 B( 16-C , 17-C ) :   0.8937 
B( 16-C , 20-O ) :   0.8403 B( 16-C , 21-H ) :   0.9317 B( 17-C , 18-C ) :   0.9145 
B( 17-C , 22-H ) :   0.9350 B( 17-C , 23-O ) :   0.9331 B( 18-C , 19-C ) :   0.9330 
B( 18-C , 24-H ) :   0.9431 B( 18-C , 25-H ) :   0.9427 B( 19-C , 20-O ) :   0.8371 
B( 19-C , 26-H ) :   0.9336 B( 19-C , 27-H ) :   0.9376 B( 23-O , 28-H ) :   0.7753 


-------
TIMINGS
-------

Total SCF time: 0 days 0 hours 5 min 39 sec 

Total time                  ....     339.868 sec
Sum of individual times     ....     298.195 sec  ( 87.7%)

Fock matrix formation       ....     274.311 sec  ( 80.7%)
  XC integration            ....      94.550 sec  ( 34.5% of F)
    Basis function eval.    ....       3.124 sec  (  3.3% of XC)
    Density eval.           ....       2.079 sec  (  2.2% of XC)
    XC-Functional eval.     ....       2.203 sec  (  2.3% of XC)
    XC-Potential eval.      ....       1.347 sec  (  1.4% of XC)
Diagonalization             ....       9.963 sec  (  2.9%)
Density matrix formation    ....       0.013 sec  (  0.0%)
Population analysis         ....       1.555 sec  (  0.5%)
Initial guess               ....       4.003 sec  (  1.2%)
Orbital Transformation      ....       0.000 sec  (  0.0%)
Orbital Orthonormalization  ....       0.000 sec  (  0.0%)
DIIS solution               ....       1.178 sec  (  0.3%)
SOSCF solution              ....       0.530 sec  (  0.2%)
Grid generation             ....       6.643 sec  (  2.0%)

-------------------------   --------------------
FINAL SINGLE POINT ENERGY      -652.830797721788
-------------------------   --------------------

------------------------------------------------------------------------------
                         ORCA SCF GRADIENT CALCULATION
------------------------------------------------------------------------------

Gradient of the Kohn-Sham DFT energy:
Kohn-Sham wavefunction type      ... RKS
Hartree-Fock exchange scaling    ...    0.200
Number of operators              ...    1
Number of atoms                  ...   29
Basis set dimensions             ...  149
Integral neglect threshold       ... 2.5e-11
Integral primitive cutoff        ... 2.5e-12

Nuclear repulsion gradient       ... done
One Electron Gradient            ... done
Pre-screening matrix             ... done
Starting the two electron gradient:
Two electron gradient done
Exchange-correlation gradient    ... done

------------------
CARTESIAN GRADIENT
------------------

   1   C   :    0.014120200    0.006943202   -0.011857715
   2   C   :    0.011136109   -0.004630809   -0.004114402
   3   C   :   -0.000472638   -0.000261216   -0.001734844
   4   C   :    0.000533121   -0.004579506   -0.004170453
   5   O   :    0.012411725   -0.006381746    0.019372722
   6   H   :    0.004211346    0.001542057   -0.000891718
   7   H   :    0.000224945    0.002905201   -0.000029649
   8   H   :    0.000413375    0.002198670   -0.000979959
   9   H   :   -0.000547660    0.000567113    0.000115994
  10   H   :   -0.000493769    0.001494844    0.000865954
  11   H   :   -0.000282361    0.001333473    0.001882555
  12   H   :   -0.000510308    0.000989924    0.000802751
  13   C   :   -0.018273437    0.003325288   -0.010825454
  14   H   :   -0.006950385   -0.008843922   -0.003198186
  15   H   :   -0.001388062   -0.004426539   -0.001111066
  16   O   :   -0.013430580    0.016043702    0.032792833
  17   C   :   -0.012415677   -0.011623087   -0.004213967
  18   C   :   -0.005540411   -0.038857640   -0.012183222
  19   C   :    0.002932333    0.005854649    0.000442123
  20   C   :    0.005368578   -0.001889227   -0.002173425
  21   O   :   -0.004244583   -0.005798303    0.001411858
  22   H   :    0.001375261    0.001606278   -0.002517049
  23   H   :   -0.002865853   -0.008749816   -0.006513551
  24   O   :    0.020922265   -0.013806162    0.043233177
  25   H   :   -0.001615404   -0.000522813    0.000066262
  26   H   :   -0.000178972    0.000089796   -0.001780559
  27   H   :    0.000241404    0.000683341    0.000402081
  28   H   :   -0.000019916    0.000620526    0.000175422
  29   H   :   -0.004660645    0.064172723   -0.033268515

Difference to translation invariance:
           :    0.0000000000   -0.0000000000   -0.0000000001

Norm of the cartesian gradient     ...    0.1155990044
RMS gradient                       ...    0.0123935142
MAX gradient                       ...    0.0641727234

-------
TIMINGS
-------

Total SCF gradient time            ...       25.572 sec

One electron gradient       ....       0.293 sec  (  1.1%)
Prescreening matrices       ....       0.049 sec  (  0.2%)
Two electron gradient       ....      15.837 sec  ( 61.9%)
XC gradient                 ....       8.624 sec  ( 33.7%)
------------------------------------------------------------------------------
                         ORCA GEOMETRY RELAXATION STEP
------------------------------------------------------------------------------

Reading the OPT-File                    .... done
Getting information on internals        .... done
Copying old internal coords+grads       .... done
Making the new internal coordinates     .... (new redundants).... done
Validating the new internal coordinates .... (new redundants).... done
Calculating the B-matrix                .... done
Calculating the G,G- and P matrices     .... done
Transforming gradient to internals      .... done
Projecting the internal gradient        .... done
Number of atoms                         ....  29
Number of internal coordinates          .... 172
Current Energy                          ....  -652.830797722 Eh
Current gradient norm                   ....     0.115599004 Eh/bohr
Maximum allowed component of the step   ....  0.300
Current trust radius                    ....  0.300
Evaluating the initial hessian          ....  (Almloef) done
Projecting the Hessian                  .... done
Forming the augmented Hessian           .... done
Diagonalizing the augmented Hessian     .... done
Last element of RFO vector              ....  0.921640779
Lowest eigenvalues of augmented Hessian:
 -0.045317180  0.008749694  0.033053532  0.033204463  0.036564720
Length of the computed step             ....  0.421036237
Warning: the length of the step is outside the trust region - taking restricted step instead
The input lambda is                     ....    -0.045317
   iter:   1  x=   -0.084640  g=    2.219353 f(x)=     0.087272
   iter:   2  x=   -0.119182  g=    0.928959 f(x)=     0.032088
   iter:   3  x=   -0.130339  g=    0.591211 f(x)=     0.006596
   iter:   4  x=   -0.131072  g=    0.524528 f(x)=     0.000384
   iter:   5  x=   -0.131075  g=    0.520586 f(x)=     0.000001
   iter:   6  x=   -0.131075  g=    0.520572 f(x)=     0.000000
   iter:   7  x=   -0.131075  g=    0.520572 f(x)=    -0.000000
The output lambda is                    ....    -0.131075 (7 iterations)
The final length of the internal step   ....  0.300000000
Converting the step to cartesian space:
 Initial RMS(Int)=    0.0228747855
Transforming coordinates:
[...]
  29   2.0000      -0.487503       -13.2656 
  30   2.0000      -0.470395       -12.8001 
  31   2.0000      -0.455836       -12.4039 
  32   2.0000      -0.451324       -12.2812 
  33   2.0000      -0.435098       -11.8396 
  34   2.0000      -0.425187       -11.5699 
  35   2.0000      -0.411448       -11.1961 
  36   2.0000      -0.408540       -11.1170 
  37   2.0000      -0.384652       -10.4669 
  38   2.0000      -0.381712       -10.3869 
  39   2.0000      -0.365905        -9.9568 
  40   2.0000      -0.364162        -9.9094 
  41   2.0000      -0.361046        -9.8245 
  42   2.0000      -0.347166        -9.4469 
  43   2.0000      -0.340281        -9.2595 
  44   2.0000      -0.329269        -8.9599 
  45   2.0000      -0.320211        -8.7134 
  46   2.0000      -0.290526        -7.9056 
  47   2.0000      -0.277784        -7.5589 
  48   2.0000      -0.264767        -7.2047 
  49   2.0000      -0.243065        -6.6141 
  50   2.0000      -0.238858        -6.4996 
  51   0.0000       0.056570         1.5394 
  52   0.0000       0.081510         2.2180 
  53   0.0000       0.091914         2.5011 
  54   0.0000       0.098049         2.6681 
  55   0.0000       0.103810         2.8248 
  56   0.0000       0.109585         2.9819 
  57   0.0000       0.123227         3.3532 
  58   0.0000       0.131271         3.5721 
  59   0.0000       0.137302         3.7362 
  60   0.0000       0.141391         3.8474 
  61   0.0000       0.147212         4.0059 
  62   0.0000       0.156203         4.2505 
  63   0.0000       0.160454         4.3662 
  64   0.0000       0.164916         4.4876 
  65   0.0000       0.169933         4.6241 
  66   0.0000       0.179613         4.8875 
  67   0.0000       0.191213         5.2032 
  68   0.0000       0.195690         5.3250 
  69   0.0000       0.204862         5.5746 
  70   0.0000       0.213890         5.8202 
  71   0.0000       0.218583         5.9480 
  72   0.0000       0.228074         6.2062 
  73   0.0000       0.239201         6.5090 
  74   0.0000       0.259102         7.0505 
  75   0.0000       0.262899         7.1539 
  76   0.0000       0.270924         7.3722 
  77   0.0000       0.277578         7.5533 
  78   0.0000       0.292955         7.9717 
  79   0.0000       0.299297         8.1443 
  80   0.0000       0.309173         8.4130 
  81   0.0000       0.519104        14.1255 
  82   0.0000       0.529006        14.3950 
  83   0.0000       0.532366        14.4864 
  84   0.0000       0.545611        14.8468 
  85   0.0000       0.554443        15.0872 
  86   0.0000       0.564270        15.3546 
  87   0.0000       0.576360        15.6836 
  88   0.0000       0.580510        15.7965 
  89   0.0000       0.593382        16.1467 
  90   0.0000       0.595377        16.2010 
  91   0.0000       0.603903        16.4330 
  92   0.0000       0.618685        16.8353 
  93   0.0000       0.627578        17.0773 
  94   0.0000       0.638655        17.3787 
  95   0.0000       0.651358        17.7244 
  96   0.0000       0.660574        17.9751 
  97   0.0000       0.672244        18.2927 
  98   0.0000       0.687499        18.7078 
  99   0.0000       0.710873        19.3438 
 100   0.0000       0.740606        20.1529 
 101   0.0000       0.759098        20.6561 
 102   0.0000       0.790292        21.5049 
 103   0.0000       0.816919        22.2295 
 104   0.0000       0.822081        22.3700 
 105   0.0000       0.836645        22.7663 
 106   0.0000       0.838118        22.8063 
 107   0.0000       0.846950        23.0467 
 108   0.0000       0.863542        23.4982 
 109   0.0000       0.872517        23.7424 
 110   0.0000       0.883422        24.0391 
 111   0.0000       0.896959        24.4075 
 112   0.0000       0.902077        24.5468 
 113   0.0000       0.912725        24.8365 
 114   0.0000       0.914390        24.8818 
 115   0.0000       0.933604        25.4047 
 116   0.0000       0.938089        25.5267 
 117   0.0000       0.947548        25.7841 
 118   0.0000       0.952541        25.9199 
 119   0.0000       0.965432        26.2707 
 120   0.0000       0.971934        26.4477 
 121   0.0000       0.988752        26.9053 
 122   0.0000       0.997106        27.1326 
 123   0.0000       1.003762        27.3138 
 124   0.0000       1.017803        27.6958 
 125   0.0000       1.061957        28.8973 
 126   0.0000       1.078095        29.3365 
 127   0.0000       1.114910        30.3382 
 128   0.0000       1.145756        31.1776 
 129   0.0000       1.169578        31.8258 
 130   0.0000       1.205749        32.8101 
 131   0.0000       1.228963        33.4418 
 132   0.0000       1.289285        35.0832 
 133   0.0000       1.301962        35.4282 
 134   0.0000       1.328851        36.1599 
 135   0.0000       1.366924        37.1959 
 136   0.0000       1.419328        38.6219 
 137   0.0000       1.429497        38.8986 
 138   0.0000       1.472769        40.0761 
 139   0.0000       1.489479        40.5308 
 140   0.0000       1.503830        40.9213 
 141   0.0000       1.609083        43.7854 
 142   0.0000       1.631080        44.3839 
 143   0.0000       1.670660        45.4610 
 144   0.0000       1.791545        48.7504 
 145   0.0000       1.889737        51.4224 
 146   0.0000       2.010913        54.7197 
 147   0.0000       2.034514        55.3619 
 148   0.0000       2.126503        57.8651 

                    ********************************
                    * MULLIKEN POPULATION ANALYSIS *
                    ********************************

-----------------------
MULLIKEN ATOMIC CHARGES
-----------------------
   0 C :    0.284682
   1 C :   -0.251360
   2 C :   -0.304589
   3 C :   -0.010775
   4 O :   -0.502486
   5 H :    0.152173
   6 H :    0.148667
   7 H :    0.151414
   8 H :    0.146993
   9 H :    0.165029
  10 H :    0.162515
  11 H :    0.147854
  12 C :   -0.047339
  13 H :    0.161567
  14 H :    0.155512
  15 O :   -0.540921
  16 C :    0.050262
  17 C :    0.124940
  18 C :   -0.301677
  19 C :   -0.021970
  20 O :   -0.521167
  21 H :    0.163698
  22 H :    0.146598
  23 O :   -0.642666
  24 H :    0.151977
  25 H :    0.146994
  26 H :    0.140079
  27 H :    0.150305
  28 H :    0.393688
Sum of atomic charges:    0.0000000

--------------------------------
MULLIKEN REDUCED ORBITAL CHARGES
--------------------------------
  0 C s       :     3.201212  s :     3.201212
      pz      :     0.807039  p :     2.514105
      px      :     0.684471
      py      :     1.022596
  1 C s       :     3.301350  s :     3.301350
      pz      :     0.985828  p :     2.950010
      px      :     1.031076
      py      :     0.933106
  2 C s       :     3.317667  s :     3.317667
      pz      :     0.903912  p :     2.986922
      px      :     1.091183
      py      :     0.991828
  3 C s       :     3.268029  s :     3.268029
      pz      :     0.930153  p :     2.742746
      px      :     1.077334
      py      :     0.735258
  4 O s       :     3.940016  s :     3.940016
      pz      :     1.277358  p :     4.562469
      px      :     1.761623
      py      :     1.523489
  5 H s       :     0.847827  s :     0.847827
  6 H s       :     0.851333  s :     0.851333
  7 H s       :     0.848586  s :     0.848586
  8 H s       :     0.853007  s :     0.853007
  9 H s       :     0.834971  s :     0.834971
 10 H s       :     0.837485  s :     0.837485
 11 H s       :     0.852146  s :     0.852146
 12 C s       :     3.283931  s :     3.283931
      pz      :     0.913607  p :     2.763407
      px      :     0.963278
      py      :     0.886522
 13 H s       :     0.838433  s :     0.838433
 14 H s       :     0.844488  s :     0.844488
 15 O s       :     3.914357  s :     3.914357
      pz      :     1.651579  p :     4.626564
      px      :     1.267764
      py      :     1.707221
 16 C s       :     3.260590  s :     3.260590
      pz      :     0.852186  p :     2.689149
      px      :     0.955298
      py      :     0.881665
 17 C s       :     3.235212  s :     3.235212
      pz      :     0.853764  p :     2.639848
      px      :     0.901164
      py      :     0.884920
 18 C s       :     3.318849  s :     3.318849
      pz      :     0.957466  p :     2.982828
      px      :     1.006301
      py      :     1.019060
 19 C s       :     3.270253  s :     3.270253
      pz      :     1.010690  p :     2.751717
      px      :     0.703176
      py      :     1.037851
 20 O s       :     3.947590  s :     3.947590
      pz      :     1.677342  p :     4.573576
      px      :     1.205196
      py      :     1.691037
 21 H s       :     0.836302  s :     0.836302
 22 H s       :     0.853402  s :     0.853402
 23 O s       :     3.915943  s :     3.915943
      pz      :     1.640886  p :     4.726723
      px      :     1.629857
      py      :     1.455980
 24 H s       :     0.848023  s :     0.848023
 25 H s       :     0.853006  s :     0.853006
 26 H s       :     0.859921  s :     0.859921
 27 H s       :     0.849695  s :     0.849695
 28 H s       :     0.606312  s :     0.606312


                     *******************************
                     * LOEWDIN POPULATION ANALYSIS *
                     *******************************

----------------------
LOEWDIN ATOMIC CHARGES
----------------------
   0 C :    0.174679
   1 C :   -0.219053
   2 C :   -0.216961
   3 C :   -0.027638
   4 O :   -0.313547
   5 H :    0.104617
   6 H :    0.115674
   7 H :    0.121020
   8 H :    0.117009
   9 H :    0.120230
  10 H :    0.112695
  11 H :    0.105963
  12 C :   -0.046566
  13 H :    0.115187
  14 H :    0.109352
  15 O :   -0.338216
  16 C :    0.005978
  17 C :    0.043795
  18 C :   -0.236632
  19 C :   -0.032720
  20 O :   -0.325685
  21 H :    0.115573
  22 H :    0.104286
  23 O :   -0.435668
  24 H :    0.121544
  25 H :    0.111876
  26 H :    0.100947
  27 H :    0.106354
  28 H :    0.285909

-------------------------------
LOEWDIN REDUCED ORBITAL CHARGES
-------------------------------
  0 C s       :     2.955988  s :     2.955988
      pz      :     0.929315  p :     2.869332
      px      :     0.844135
      py      :     1.095882
  1 C s       :     2.978439  s :     2.978439
      pz      :     1.078198  p :     3.240615
      px      :     1.109874
      py      :     1.052542
  2 C s       :     2.970850  s :     2.970850
      pz      :     1.029307  p :     3.246111
      px      :     1.135849
      py      :     1.080955
  3 C s       :     2.986051  s :     2.986051
      pz      :     1.032328  p :     3.041587
      px      :     1.131844
      py      :     0.877415
  4 O s       :     3.597884  s :     3.597884
      pz      :     1.349922  p :     4.715663
      px      :     1.794827
      py      :     1.570914
  5 H s       :     0.895383  s :     0.895383
  6 H s       :     0.884326  s :     0.884326
  7 H s       :     0.878980  s :     0.878980
  8 H s       :     0.882991  s :     0.882991
  9 H s       :     0.879770  s :     0.879770
 10 H s       :     0.887305  s :     0.887305
 11 H s       :     0.894037  s :     0.894037
 12 C s       :     2.989275  s :     2.989275
      pz      :     1.014928  p :     3.057291
      px      :     1.031969
      py      :     1.010393
 13 H s       :     0.884813  s :     0.884813
 14 H s       :     0.890648  s :     0.890648
 15 O s       :     3.586751  s :     3.586751
      pz      :     1.690370  p :     4.751465
      px      :     1.330633
      py      :     1.730463
 16 C s       :     2.963742  s :     2.963742
      pz      :     0.986113  p :     3.030280
      px      :     1.040326
      py      :     1.003842
 17 C s       :     2.946980  s :     2.946980
      pz      :     0.997329  p :     3.009225
      px      :     1.026498
      py      :     0.985398
 18 C s       :     2.983578  s :     2.983578
      pz      :     1.062847  p :     3.253054
      px      :     1.088097
      py      :     1.102110
 19 C s       :     2.984531  s :     2.984531
      pz      :     1.092989  p :     3.048189
      px      :     0.841043
      py      :     1.114157
 20 O s       :     3.605349  s :     3.605349
      pz      :     1.714424  p :     4.720336
      px      :     1.276552
      py      :     1.729360
 21 H s       :     0.884427  s :     0.884427
 22 H s       :     0.895714  s :     0.895714
 23 O s       :     3.594807  s :     3.594807
      pz      :     1.680366  p :     4.840861
      px      :     1.654914
      py      :     1.505581
 24 H s       :     0.878456  s :     0.878456
 25 H s       :     0.888124  s :     0.888124
 26 H s       :     0.899053  s :     0.899053
 27 H s       :     0.893646  s :     0.893646
 28 H s       :     0.714091  s :     0.714091


                      *****************************
                      * MAYER POPULATION ANALYSIS *
                      *****************************

  NA   - Mulliken gross atomic population
  ZA   - Total nuclear charge
  QA   - Mulliken gross atomic charge
  VA   - Mayer's total valence
  BVA  - Mayer's bonded valence
  FA   - Mayer's free valence

  ATOM       NA         ZA         QA         VA         BVA        FA
  0 C      5.7153     6.0000     0.2847     3.6533     3.6533     0.0000
  1 C      6.2514     6.0000    -0.2514     3.7271     3.7271     0.0000
  2 C      6.3046     6.0000    -0.3046     3.7645     3.7645     0.0000
  3 C      6.0108     6.0000    -0.0108     3.6484     3.6484    -0.0000
  4 O      8.5025     8.0000    -0.5025     1.7978     1.7978    -0.0000
  5 H      0.8478     1.0000     0.1522     0.9359     0.9359    -0.0000
  6 H      0.8513     1.0000     0.1487     0.9311     0.9311    -0.0000
  7 H      0.8486     1.0000     0.1514     0.9406     0.9406    -0.0000
  8 H      0.8530     1.0000     0.1470     0.9364     0.9364     0.0000
  9 H      0.8350     1.0000     0.1650     0.9328     0.9328    -0.0000
 10 H      0.8375     1.0000     0.1625     0.9241     0.9241    -0.0000
 11 H      0.8521     1.0000     0.1479     0.9289     0.9289    -0.0000
 12 C      6.0473     6.0000    -0.0473     3.6099     3.6099    -0.0000
 13 H      0.8384     1.0000     0.1616     0.9356     0.9356     0.0000
 14 H      0.8445     1.0000     0.1555     0.9334     0.9334     0.0000
 15 O      8.5409     8.0000    -0.5409     1.7401     1.7401    -0.0000
 16 C      5.9497     6.0000     0.0503     3.5987     3.5987     0.0000
 17 C      5.8751     6.0000     0.1249     3.6827     3.6827    -0.0000
 18 C      6.3017     6.0000    -0.3017     3.7035     3.7035    -0.0000
 19 C      6.0220     6.0000    -0.0220     3.6520     3.6520     0.0000
 20 O      8.5212     8.0000    -0.5212     1.7616     1.7616    -0.0000
 21 H      0.8363     1.0000     0.1637     0.9308     0.9308     0.0000
 22 H      0.8534     1.0000     0.1466     0.9235     0.9235     0.0000
 23 O      8.6427     8.0000    -0.6427     1.7199     1.7199    -0.0000
 24 H      0.8480     1.0000     0.1520     0.9389     0.9389     0.0000
 25 H      0.8530     1.0000     0.1470     0.9422     0.9422    -0.0000
 26 H      0.8599     1.0000     0.1401     0.9269     0.9269     0.0000
 27 H      0.8497     1.0000     0.1503     0.9272     0.9272     0.0000
 28 H      0.6063     1.0000     0.3937     0.8411     0.8411     0.0000

  Mayer bond orders larger than 0.100000
B(  0-C ,  1-C ) :   0.9444 B(  0-C ,  4-O ) :   0.9405 B(  0-C ,  5-H ) :   0.9179 
B(  0-C , 15-O ) :   0.7973 B(  1-C ,  2-C ) :   0.9544 B(  1-C ,  6-H ) :   0.9357 
B(  1-C ,  7-H ) :   0.9375 B(  2-C ,  3-C ) :   0.9533 B(  2-C ,  8-H ) :   0.9446 
B(  2-C ,  9-H ) :   0.9434 B(  3-C ,  4-O ) :   0.8275 B(  3-C , 10-H ) :   0.9330 
B(  3-C , 11-H ) :   0.9398 B( 12-C , 13-H ) :   0.9361 B( 12-C , 14-H ) :   0.9264 
B( 12-C , 15-O ) :   0.8058 B( 12-C , 16-C ) :   0.8840 B( 16-C , 17-C ) :   0.9152 
B( 16-C , 20-O ) :   0.8529 B( 16-C , 21-H ) :   0.9282 B( 17-C , 18-C ) :   0.9037 
B( 17-C , 22-H ) :   0.9294 B( 17-C , 23-O ) :   0.9337 B( 18-C , 19-C ) :   0.9403 
B( 18-C , 24-H ) :   0.9444 B( 18-C , 25-H ) :   0.9428 B( 19-C , 20-O ) :   0.8302 
B( 19-C , 26-H ) :   0.9348 B( 19-C , 27-H ) :   0.9382 B( 23-O , 28-H ) :   0.7222 


-------
TIMINGS
-------

Total SCF time: 0 days 0 hours 2 min 24 sec 

Total time                  ....     144.613 sec
Sum of individual times     ....     124.826 sec  ( 86.3%)

Fock matrix formation       ....     106.432 sec  ( 73.6%)
  XC integration            ....      57.883 sec  ( 54.4% of F)
    Basis function eval.    ....       1.915 sec  (  3.3% of XC)
    Density eval.           ....       1.145 sec  (  2.0% of XC)
    XC-Functional eval.     ....       0.411 sec  (  0.7% of XC)
    XC-Potential eval.      ....       0.786 sec  (  1.4% of XC)
Diagonalization             ....       0.908 sec  (  0.6%)
Density matrix formation    ....       0.004 sec  (  0.0%)
Population analysis         ....       5.943 sec  (  4.1%)
Initial guess               ....       0.030 sec  (  0.0%)
Orbital Transformation      ....       0.000 sec  (  0.0%)
Orbital Orthonormalization  ....       0.005 sec  (  0.0%)
DIIS solution               ....       0.002 sec  (  0.0%)
SOSCF solution              ....       0.109 sec  (  0.1%)
Grid generation             ....      11.398 sec  (  7.9%)

-------------------------   --------------------
FINAL SINGLE POINT ENERGY      -652.867010639273
-------------------------   --------------------

                                *** OPTIMIZATION RUN DONE ***

                            ***************************************
                            *     ORCA property calculations      *
                            ***************************************

                                    ---------------------
                                    Active property flags
                                    ---------------------
   (+) Dipole Moment


------------------------------------------------------------------------------
                       ORCA ELECTRIC PROPERTIES CALCULATION
------------------------------------------------------------------------------

Dipole Moment Calculation                       ... on
Quadrupole Moment Calculation                   ... off
Polarizability Calculation                      ... off
GBWName                                         ... project_8051/ensemble_240_90.gbw
Electron density file                           ... project_8051/ensemble_240_90.scfp
The origin for moment calculation is the CENTER OF MASS  = (-43.330629, 48.296841 88.086319)

-------------
DIPOLE MOMENT
-------------
                                X             Y             Z
Electronic contribution:      0.19426      -3.51994       0.40263
Nuclear contribution   :      0.28561       4.44244      -1.17381
                        -----------------------------------------
Total Dipole Moment    :      0.47987       0.92250      -0.77117
                        -----------------------------------------
Magnitude (a.u.)       :      1.29460
Magnitude (Debye)      :      3.29062



--------------------
Rotational spectrum 
--------------------
 
Rotational constants in cm-1:     0.061850     0.013696     0.012647 
Rotational constants in MHz :  1854.208307   410.588010   379.144765 

 Dipole components along the rotational axes: 
x,y,z [a.u.] :     0.751066    -0.764407     0.726349 
x,y,z [Debye]:     1.909059    -1.942967     1.846232 

 

Timings for individual modules:

Sum of individual times         ...     2672.319 sec (=  44.539 min)
GTO integral calculation        ...       81.099 sec (=   1.352 min)   3.0 %
SCF iterations                  ...     2238.386 sec (=  37.306 min)  83.8 %
SCF Gradient evaluation         ...      318.002 sec (=   5.300 min)  11.9 %
Geometry relaxation             ...       34.832 sec (=   0.581 min)   1.3 %
                             ****ORCA TERMINATED NORMALLY****
TOTAL RUN TIME: 0 days 0 hours 47 minutes 53 seconds 638 msec
