
                                 *****************
                                 * O   R   C   A *
                                 *****************

           --- An Ab Initio, DFT and Semiempirical electronic structure package ---

                  #######################################################
                  #                        -***-                        #
                  #          Department of theory and spectroscopy      #
                  #               Directorship: Frank Neese             #
                  #        Max Planck Institute fuer Kohlenforschung    #
                  #                Kaiser Wilhelm Platz 1               #
                  #                 D-45470 Muelheim/Ruhr               #
                  #                      Germany                        #
                  #                                                     #
                  #                  All rights reserved                #
                  #                        -***-                        #
                  #######################################################


                         Program Version 4.2.0 -  RELEASE  -


 With contributions from (in alphabetic order):
   Daniel Aravena         : Magnetic Suceptibility
   Michael Atanasov       : Ab Initio Ligand Field Theory (pilot matlab implementation)
   Alexander A. Auer      : GIAO ZORA, VPT2
   Ute Becker             : Parallelization
   Giovanni Bistoni       : ED, misc. LED, open-shell LED, HFLED
   Martin Brehm           : Molecular dynamics
   Dmytro Bykov           : SCF Hessian
   Vijay G. Chilkuri      : MRCI spin determinant printing, contributions to CSF-ICE
   Dipayan Datta          : RHF DLPNO-CCSD density
   Achintya Kumar Dutta   : EOM-CC, STEOM-CC
   Dmitry Ganyushin       : Spin-Orbit,Spin-Spin,Magnetic field MRCI
   Miquel Garcia          : C-PCM Hessian, Gaussian charge scheme
   Yang Guo               : DLPNO-NEVPT2, CIM, IAO-localization
   Andreas Hansen         : Spin unrestricted coupled pair/coupled cluster methods
   Benjamin Helmich-Paris : CASSCF linear response (MC-RPA)
   Lee Huntington         : MR-EOM, pCC
   Robert Izsak           : Overlap fitted RIJCOSX, COSX-SCS-MP3, EOM
   Christian Kollmar      : KDIIS, OOCD, Brueckner-CCSD(T), CCSD density
   Simone Kossmann        : Meta GGA functionals, TD-DFT gradient, OOMP2, MP2 Hessian
   Martin Krupicka        : AUTO-CI
   Lucas Lang             : DCDCAS
   Dagmar Lenk            : GEPOL surface, SMD
   Dimitrios Liakos       : Extrapolation schemes; Compound Job, initial MDCI parallelization
   Dimitrios Manganas     : Further ROCIS development; embedding schemes
   Dimitrios Pantazis     : SARC Basis sets
   Taras Petrenko         : DFT Hessian,TD-DFT gradient, ASA, ECA, R-Raman, ABS, FL, XAS/XES, NRVS
   Peter Pinski           : DLPNO-MP2, DLPNO-MP2 Gradient
   Christoph Reimann      : Effective Core Potentials
   Marius Retegan         : Local ZFS, SOC
   Christoph Riplinger    : Optimizer, TS searches, QM/MM, DLPNO-CCSD(T), (RO)-DLPNO pert. Triples
   Tobias Risthaus        : Range-separated hybrids, TD-DFT gradient, RPA, STAB
   Michael Roemelt        : Original ROCIS implementation
   Masaaki Saitow         : Open-shell DLPNO-CCSD energy and density
   Barbara Sandhoefer     : DKH picture change effects
   Avijit Sen             : IP-ROCIS
   Kantharuban Sivalingam : CASSCF convergence, NEVPT2, FIC-MRCI
   Bernardo de Souza      : ESD, SOC TD-DFT
   Georgi Stoychev        : AutoAux, RI-MP2 NMR
   Willem Van den Heuvel  : Paramagnetic NMR
   Boris Wezisla          : Elementary symmetry handling
   Frank Wennmohs         : Technical directorship


 We gratefully acknowledge several colleagues who have allowed us to
 interface, adapt or use parts of their codes:
   Stefan Grimme, W. Hujo, H. Kruse,             : VdW corrections, initial TS optimization,
                  C. Bannwarth                     DFT functionals, gCP, sTDA/sTD-DF
   Ed Valeev, F. Pavosevic, A. Kumar             : LibInt (2-el integral package), F12 methods
   Garnet Chan, S. Sharma, J. Yang, R. Olivares  : DMRG
   Ulf Ekstrom                                   : XCFun DFT Library
   Mihaly Kallay                                 : mrcc  (arbitrary order and MRCC methods)
   Andreas Klamt, Michael Diedenhofen            : otool_cosmo (COSMO solvation model)
   Jiri Pittner, Ondrej Demel                    : Mk-CCSD
   Frank Weinhold                                : gennbo (NPA and NBO analysis)
   Christopher J. Cramer and Donald G. Truhlar   : smd solvation model
   Lars Goerigk                                  : TD-DFT with DH, B97 family of functionals
   V. Asgeirsson, H. Jonsson                     : NEB implementation
   FAccTs GmbH                                   : IRC, NEB, NEB-TS, Multilevel, MM, QM/MM, CI optimization
   S Lehtola, MJT Oliveira, MAL Marques          : LibXC Library


 Your calculation uses the libint2 library for the computation of 2-el integrals
 For citations please refer to: http://libint.valeyev.net

 Your ORCA version has been built with support for libXC version: 4.2.3
 For citations please refer to: https://tddft.org/programs/libxc/

 This ORCA versions uses:
   CBLAS   interface :  Fast vector & matrix operations
   LAPACKE interface :  Fast linear algebra routines
   SCALAPACK package :  Parallel linear algebra routines


----- Orbital basis set information -----
Your calculation utilizes the basis: 6-31G
   H-He, Li-Ne : W. J. Hehre, R. Ditchfield and J.A. Pople, J. Chem. Phys. 56, 2257 (1972).
                 Note: He and Ne are unpublished basis sets taken from the Gaussian program.
                 Note: Li and B from J. D. Dill and J. A. Pople, J. Chem. Phys. 62, 2921 (1975).
   Na - Ar     : M. M. Francl, W. J. Pietro, W. J. Hehre, J. S. Binkley, M. S. Gordon, 
                 D. J. DeFrees and J. A. Pople, J. Chem. Phys. 77, 3654 (1982).
   K - Zn      : V. A. Rassolov, J. A. Pople, M. A. Ratner, and T. L. Windus, J. Chem. Phys. 109, 1223 (1998).

================================================================================
                                        WARNINGS
                       Please study these warnings very carefully!
================================================================================


WARNING: Geometry Optimization
  ===> : Switching off AutoStart
         For restart on a previous wavefunction, please use MOREAD

INFO   : the flag for use of LIBINT has been found!

================================================================================
                                       INPUT FILE
================================================================================
NAME = project_8050/ensemble_210_180.inp
|  1> # Test redundant internal optimization
|  2> #
|  3> ! RKS B3LYP  Opt TightSCF SmallPrint
|  4> 
|  5> %basis
|  6>         Basis "6-31G"
|  7> end
|  8> 
|  9> %geom
| 10> Constraints
| 11> { D 4  0  15  12  210.0   C } # D for Dihedral angle
| 12> { D 0  15  12  16  180.0   C } # D for Dihedral angle
| 13> { D 0  4  3  2   C } # D for Dihedral angle
| 14> { D 4  3  2  1   C } # D for Dihedral angle
| 15> { D 3  2  1  0   C } # D for Dihedral angle
| 16> { D 2  1  0  4   C } # D for Dihedral angle
| 17> { D 1  0  4  3   C } # D for Dihedral angle
| 18> { D 16  20  19  18   C } # D for Dihedral angle
| 19> { D 20  19  18  17   C } # D for Dihedral angle
| 20> { D 19  18  17  16   C } # D for Dihedral angle
| 21> { D 18  17  16  20   C } # D for Dihedral angle
| 22> { D 17  16  20  19   C } # D for Dihedral angle
| 23> { D 15  12  16  20   C } # D for Dihedral angle
| 24> end
| 25> end
| 26> 
| 27> 
| 28> #%pal 
| 29> #nprocs 8
| 30> #end
| 31> 
| 32> * xyz 0 1
| 33> C  -21.048   26.222   46.251
| 34> C  -20.361   27.558   45.944
| 35> C  -20.329   28.222   47.341
| 36> C  -20.110   27.022   48.296
| 37> O  -20.473   25.807   47.535
| 38> H  -20.833   25.428   45.533
| 39> H  -19.344   27.382   45.576
| 40> H  -20.898   28.157   45.201
| 41> H  -19.543   28.978   47.434
| 42> H  -21.289   28.710   47.548
| 43> H  -20.733   27.082   49.195
| 44> H  -19.064   26.913   48.597
| 45> C  -23.389   26.110   45.076
| 46> H  -23.052   26.792   44.286
| 47> H  -23.219   25.081   44.736
| 48> O  -22.586   26.394   46.375
| 49> C  -24.920   26.299   45.263
| 50> C  -25.267   27.759   45.575
| 51> C  -25.203   28.403   44.169
| 52> C  -25.733   27.280   43.243
| 53> O  -25.628   26.019   44.009
| 54> H  -25.281   25.581   46.002
| 55> O  -26.704   27.853   46.157
| 56> H  -24.576   28.224   46.287
| 57> H  -25.797   29.320   44.095
| 58> H  -24.166   28.655   43.918
| 59> H  -25.151   27.188   42.320
| 60> H  -26.787   27.414   42.985
| 61> H  -27.415   27.394   45.459
| 62> *
| 63> 
| 64>                          ****END OF INPUT****
================================================================================

                       *****************************
                       * Geometry Optimization Run *
                       *****************************

Geometry optimization settings:
Update method            Update   .... BFGS
Choice of coordinates    CoordSys .... Z-matrix Internals
Initial Hessian          InHess   .... Almoef's Model

Convergence Tolerances:
Energy Change            TolE     ....  5.0000e-06 Eh
Max. Gradient            TolMAXG  ....  3.0000e-04 Eh/bohr
RMS Gradient             TolRMSG  ....  1.0000e-04 Eh/bohr
Max. Displacement        TolMAXD  ....  4.0000e-03 bohr
RMS Displacement         TolRMSD  ....  2.0000e-03 bohr
Strict Convergence                ....  False
------------------------------------------------------------------------------
                        ORCA OPTIMIZATION COORDINATE SETUP
------------------------------------------------------------------------------

The optimization will be done in new redundant internal coordinates
Making redundant internal coordinates   ...  (new redundants) done
Evaluating the initial hessian          ...  (Almloef) done
Evaluating the coordinates              ...  done
Calculating the B-matrix                .... done
Calculating the G-matrix                .... done
Diagonalizing the G-matrix              .... done
Imposing constraints:
 Iter   0:  RMS(Cart)=    0.0001225248 RMS(Int)=    0.0000457224
 Iter   1:  RMS(Cart)=    0.0000626271 RMS(Int)=    0.0000248429
 Iter   2:  RMS(Cart)=    0.0000335560 RMS(Int)=    0.0000147048
 Iter   3:  RMS(Cart)=    0.0000189337 RMS(Int)=    0.0000096940
 Iter   4:  RMS(Cart)=    0.0000112651 RMS(Int)=    0.0000071668
 Iter   5:  RMS(Cart)=    0.0000070644 RMS(Int)=    0.0000058551
 Iter   6:  RMS(Cart)=    0.0000046684 RMS(Int)=    0.0000051413
 Iter   7:  RMS(Cart)=    0.0000032544 RMS(Int)=    0.0000047229
 Iter   8:  RMS(Cart)=    0.0000023975 RMS(Int)=    0.0000044520
 Iter   9:  RMS(Cart)=    0.0000018669 RMS(Int)=    0.0000042561
 Iter  10:  RMS(Cart)=    0.0000015318 RMS(Int)=    0.0000040995
 Iter  11:  RMS(Cart)=    0.0000013148 RMS(Int)=    0.0000039644
 Iter  12:  RMS(Cart)=    0.0000011696 RMS(Int)=    0.0000038419
 Iter  13:  RMS(Cart)=    0.0000010684 RMS(Int)=    0.0000037275
 Iter  14:  RMS(Cart)=    0.0000009944 RMS(Int)=    0.0000036189
 Iter  15:  RMS(Cart)=    0.0000009375 RMS(Int)=    0.0000035148
 Iter  16:  RMS(Cart)=    0.0000008917 RMS(Int)=    0.0000034144
 Iter  17:  RMS(Cart)=    0.0000008532 RMS(Int)=    0.0000033175
 Iter  18:  RMS(Cart)=    0.0000008198 RMS(Int)=    0.0000032238
 Iter  19:  RMS(Cart)=    0.0000007899 RMS(Int)=    0.0000031331
 Iter  20:  RMS(Cart)=    0.0000007626 RMS(Int)=    0.0000030453
 Iter  21:  RMS(Cart)=    0.0000007374 RMS(Int)=    0.0000029602
 Iter  22:  RMS(Cart)=    0.0000007137 RMS(Int)=    0.0000028777
 Iter  23:  RMS(Cart)=    0.0000006913 RMS(Int)=    0.0000027979
 Iter  24:  RMS(Cart)=    0.0000006699 RMS(Int)=    0.0000027205
 Iter  25:  RMS(Cart)=    0.0000006495 RMS(Int)=    0.0000026454
 Iter  26:  RMS(Cart)=    0.0000006299 RMS(Int)=    0.0000025727
 Iter  27:  RMS(Cart)=    0.0000006110 RMS(Int)=    0.0000025023
 Iter  28:  RMS(Cart)=    0.0000005928 RMS(Int)=    0.0000024339
 Iter  29:  RMS(Cart)=    0.0000005752 RMS(Int)=    0.0000023677
 Iter  30:  RMS(Cart)=    0.0000005582 RMS(Int)=    0.0000023035
 Iter  31:  RMS(Cart)=    0.0000005418 RMS(Int)=    0.0000022413
 Iter  32:  RMS(Cart)=    0.0000005259 RMS(Int)=    0.0000021809
 Iter  33:  RMS(Cart)=    0.0000005105 RMS(Int)=    0.0000021224
 Iter  34:  RMS(Cart)=    0.0000004956 RMS(Int)=    0.0000020656
 Iter  35:  RMS(Cart)=    0.0000004812 RMS(Int)=    0.0000020106
 Iter  36:  RMS(Cart)=    0.0000004672 RMS(Int)=    0.0000019572
 Iter  37:  RMS(Cart)=    0.0000004537 RMS(Int)=    0.0000019054
 Iter  38:  RMS(Cart)=    0.0000004406 RMS(Int)=    0.0000018551
 Iter  39:  RMS(Cart)=    0.0000004279 RMS(Int)=    0.0000018064
 Iter  40:  RMS(Cart)=    0.0000004156 RMS(Int)=    0.0000017591
 Iter  41:  RMS(Cart)=    0.0000004036 RMS(Int)=    0.0000017132
 Iter  42:  RMS(Cart)=    0.0000003920 RMS(Int)=    0.0000016687
 Iter  43:  RMS(Cart)=    0.0000003808 RMS(Int)=    0.0000016255
 Iter  44:  RMS(Cart)=    0.0000003700 RMS(Int)=    0.0000015836
 Iter  45:  RMS(Cart)=    0.0000003594 RMS(Int)=    0.0000015429
 Iter  46:  RMS(Cart)=    0.0000003492 RMS(Int)=    0.0000015035
 Iter  47:  RMS(Cart)=    0.0000003393 RMS(Int)=    0.0000014651
 Iter  48:  RMS(Cart)=    0.0000003297 RMS(Int)=    0.0000014279
 Iter  49:  RMS(Cart)=    0.0000003204 RMS(Int)=    0.0000013918
 Iter  50:  RMS(Cart)=    0.0000003113 RMS(Int)=    0.0000013568
 Iter  51:  RMS(Cart)=    0.0000003026 RMS(Int)=    0.0000013227
 Iter  52:  RMS(Cart)=    0.0000002941 RMS(Int)=    0.0000012897
 Iter  53:  RMS(Cart)=    0.0000002858 RMS(Int)=    0.0000012576
 Iter  54:  RMS(Cart)=    0.0000002778 RMS(Int)=    0.0000012264
 Iter  55:  RMS(Cart)=    0.0000002701 RMS(Int)=    0.0000011962
 Iter  56:  RMS(Cart)=    0.0000002626 RMS(Int)=    0.0000011668
 Iter  57:  RMS(Cart)=    0.0000002553 RMS(Int)=    0.0000011382
 Iter  58:  RMS(Cart)=    0.0000002482 RMS(Int)=    0.0000011105
 Iter  59:  RMS(Cart)=    0.0000002413 RMS(Int)=    0.0000010836
 Iter  60:  RMS(Cart)=    0.0000002346 RMS(Int)=    0.0000010574
 Iter  61:  RMS(Cart)=    0.0000002282 RMS(Int)=    0.0000010320
 Iter  62:  RMS(Cart)=    0.0000002219 RMS(Int)=    0.0000010073
 Iter  63:  RMS(Cart)=    0.0000002158 RMS(Int)=    0.0000009833
 Iter  64:  RMS(Cart)=    0.0000002099 RMS(Int)=    0.0000009600
 Iter  65:  RMS(Cart)=    0.0000002042 RMS(Int)=    0.0000009373
 Iter  66:  RMS(Cart)=    0.0000001986 RMS(Int)=    0.0000009153
 Iter  67:  RMS(Cart)=    0.0000001932 RMS(Int)=    0.0000008939
 Iter  68:  RMS(Cart)=    0.0000001880 RMS(Int)=    0.0000008731
 Iter  69:  RMS(Cart)=    0.0000001829 RMS(Int)=    0.0000008529
 Iter  70:  RMS(Cart)=    0.0000001779 RMS(Int)=    0.0000008332
 Iter  71:  RMS(Cart)=    0.0000001731 RMS(Int)=    0.0000008141
 Iter  72:  RMS(Cart)=    0.0000001685 RMS(Int)=    0.0000007955
 Iter  73:  RMS(Cart)=    0.0000001640 RMS(Int)=    0.0000007775
 Iter  74:  RMS(Cart)=    0.0000001596 RMS(Int)=    0.0000007599
 Iter  75:  RMS(Cart)=    0.0000001553 RMS(Int)=    0.0000007428
 Iter  76:  RMS(Cart)=    0.0000001512 RMS(Int)=    0.0000007262
 Iter  77:  RMS(Cart)=    0.0000001471 RMS(Int)=    0.0000007101
 Iter  78:  RMS(Cart)=    0.0000001432 RMS(Int)=    0.0000006944
 Iter  79:  RMS(Cart)=    0.0000001395 RMS(Int)=    0.0000006791
 Iter  80:  RMS(Cart)=    0.0000001358 RMS(Int)=    0.0000006642
 Iter  81:  RMS(Cart)=    0.0000001322 RMS(Int)=    0.0000006497
 Iter  82:  RMS(Cart)=    0.0000001287 RMS(Int)=    0.0000006357
 Iter  83:  RMS(Cart)=    0.0000001253 RMS(Int)=    0.0000006220
 Iter  84:  RMS(Cart)=    0.0000001221 RMS(Int)=    0.0000006086
 Iter  85:  RMS(Cart)=    0.0000001189 RMS(Int)=    0.0000005957
 Iter  86:  RMS(Cart)=    0.0000001158 RMS(Int)=    0.0000005830
 Iter  87:  RMS(Cart)=    0.0000001128 RMS(Int)=    0.0000005707
 Iter  88:  RMS(Cart)=    0.0000001099 RMS(Int)=    0.0000005588
 Iter  89:  RMS(Cart)=    0.0000001070 RMS(Int)=    0.0000005471
 Iter  90:  RMS(Cart)=    0.0000001043 RMS(Int)=    0.0000005358
 Iter  91:  RMS(Cart)=    0.0000001016 RMS(Int)=    0.0000005248
 Iter  92:  RMS(Cart)=    0.0000000990 RMS(Int)=    0.0000005140
 Iter  93:  RMS(Cart)=    0.0000000964 RMS(Int)=    0.0000005035
 Iter  94:  RMS(Cart)=    0.0000000940 RMS(Int)=    0.0000004933
 Iter  95:  RMS(Cart)=    0.0000000916 RMS(Int)=    0.0000004834
 Iter  96:  RMS(Cart)=    0.0000000893 RMS(Int)=    0.0000004737
 Iter  97:  RMS(Cart)=    0.0000000870 RMS(Int)=    0.0000004643
 Iter  98:  RMS(Cart)=    0.0000000848 RMS(Int)=    0.0000004551
 Iter  99:  RMS(Cart)=    0.0000000827 RMS(Int)=    0.0000004462
 RMS(Cart) too big - taking linear step, building new B-matrix and trying again
Imposing constraints:
 Iter   0:  RMS(Cart)=    0.0000626262 RMS(Int)=    0.0000248429
 Iter   1:  RMS(Cart)=    0.0000335554 RMS(Int)=    0.0000147049
 Iter   2:  RMS(Cart)=    0.0000189334 RMS(Int)=    0.0000096942
 Iter   3:  RMS(Cart)=    0.0000112649 RMS(Int)=    0.0000071671
 Iter   4:  RMS(Cart)=    0.0000070644 RMS(Int)=    0.0000058556
 Iter   5:  RMS(Cart)=    0.0000046684 RMS(Int)=    0.0000051418
 Iter   6:  RMS(Cart)=    0.0000032545 RMS(Int)=    0.0000047235
 Iter   7:  RMS(Cart)=    0.0000023975 RMS(Int)=    0.0000044526
 Iter   8:  RMS(Cart)=    0.0000018670 RMS(Int)=    0.0000042567
 Iter   9:  RMS(Cart)=    0.0000015319 RMS(Int)=    0.0000041001
 Iter  10:  RMS(Cart)=    0.0000013149 RMS(Int)=    0.0000039650
 Iter  11:  RMS(Cart)=    0.0000011697 RMS(Int)=    0.0000038425
 Iter  12:  RMS(Cart)=    0.0000010685 RMS(Int)=    0.0000037281
 Iter  13:  RMS(Cart)=    0.0000009945 RMS(Int)=    0.0000036194
 Iter  14:  RMS(Cart)=    0.0000009376 RMS(Int)=    0.0000035153
 Iter  15:  RMS(Cart)=    0.0000008918 RMS(Int)=    0.0000034150
 Iter  16:  RMS(Cart)=    0.0000008533 RMS(Int)=    0.0000033180
 Iter  17:  RMS(Cart)=    0.0000008199 RMS(Int)=    0.0000032243
 Iter  18:  RMS(Cart)=    0.0000007900 RMS(Int)=    0.0000031336
 Iter  19:  RMS(Cart)=    0.0000007628 RMS(Int)=    0.0000030457
 Iter  20:  RMS(Cart)=    0.0000007375 RMS(Int)=    0.0000029606
 Iter  21:  RMS(Cart)=    0.0000007138 RMS(Int)=    0.0000028782
 Iter  22:  RMS(Cart)=    0.0000006914 RMS(Int)=    0.0000027983
 Iter  23:  RMS(Cart)=    0.0000006700 RMS(Int)=    0.0000027209
 Iter  24:  RMS(Cart)=    0.0000006496 RMS(Int)=    0.0000026459
 Iter  25:  RMS(Cart)=    0.0000006300 RMS(Int)=    0.0000025731
 Iter  26:  RMS(Cart)=    0.0000006111 RMS(Int)=    0.0000025027
 Iter  27:  RMS(Cart)=    0.0000005929 RMS(Int)=    0.0000024343
 Iter  28:  RMS(Cart)=    0.0000005753 RMS(Int)=    0.0000023681
 Iter  29:  RMS(Cart)=    0.0000005583 RMS(Int)=    0.0000023039
 Iter  30:  RMS(Cart)=    0.0000005419 RMS(Int)=    0.0000022416
 Iter  31:  RMS(Cart)=    0.0000005260 RMS(Int)=    0.0000021813
 Iter  32:  RMS(Cart)=    0.0000005106 RMS(Int)=    0.0000021227
 Iter  33:  RMS(Cart)=    0.0000004957 RMS(Int)=    0.0000020660
 Iter  34:  RMS(Cart)=    0.0000004813 RMS(Int)=    0.0000020109
 Iter  35:  RMS(Cart)=    0.0000004673 RMS(Int)=    0.0000019575
 Iter  36:  RMS(Cart)=    0.0000004538 RMS(Int)=    0.0000019057
 Iter  37:  RMS(Cart)=    0.0000004406 RMS(Int)=    0.0000018555
 Iter  38:  RMS(Cart)=    0.0000004279 RMS(Int)=    0.0000018067
 Iter  39:  RMS(Cart)=    0.0000004156 RMS(Int)=    0.0000017594
 Iter  40:  RMS(Cart)=    0.0000004037 RMS(Int)=    0.0000017136
 Iter  41:  RMS(Cart)=    0.0000003921 RMS(Int)=    0.0000016690
 Iter  42:  RMS(Cart)=    0.0000003809 RMS(Int)=    0.0000016258
 Iter  43:  RMS(Cart)=    0.0000003700 RMS(Int)=    0.0000015839
 Iter  44:  RMS(Cart)=    0.0000003595 RMS(Int)=    0.0000015432
 Iter  45:  RMS(Cart)=    0.0000003492 RMS(Int)=    0.0000015037
 Iter  46:  RMS(Cart)=    0.0000003393 RMS(Int)=    0.0000014654
 Iter  47:  RMS(Cart)=    0.0000003297 RMS(Int)=    0.0000014282
 Iter  48:  RMS(Cart)=    0.0000003204 RMS(Int)=    0.0000013921
 Iter  49:  RMS(Cart)=    0.0000003114 RMS(Int)=    0.0000013570
 Iter  50:  RMS(Cart)=    0.0000003026 RMS(Int)=    0.0000013230
 Iter  51:  RMS(Cart)=    0.0000002941 RMS(Int)=    0.0000012899
 Iter  52:  RMS(Cart)=    0.0000002859 RMS(Int)=    0.0000012578
 Iter  53:  RMS(Cart)=    0.0000002779 RMS(Int)=    0.0000012267
 Iter  54:  RMS(Cart)=    0.0000002701 RMS(Int)=    0.0000011964
 Iter  55:  RMS(Cart)=    0.0000002626 RMS(Int)=    0.0000011670
 Iter  56:  RMS(Cart)=    0.0000002553 RMS(Int)=    0.0000011385
 Iter  57:  RMS(Cart)=    0.0000002482 RMS(Int)=    0.0000011107
 Iter  58:  RMS(Cart)=    0.0000002413 RMS(Int)=    0.0000010838
 Iter  59:  RMS(Cart)=    0.0000002347 RMS(Int)=    0.0000010576
 Iter  60:  RMS(Cart)=    0.0000002282 RMS(Int)=    0.0000010322
 Iter  61:  RMS(Cart)=    0.0000002219 RMS(Int)=    0.0000010075
 Iter  62:  RMS(Cart)=    0.0000002159 RMS(Int)=    0.0000009835
CONVERGED
Small eigenvalue found = 6.956e-03
Small eigenvalue found = 1.216e-02
Small eigenvalue found = 1.805e-02
The first mode is                       ....   91
The number of degrees of freedom        ....   81
Storing new coordinates                 .... done

    -----------------------------------------------------------------
                    Redundant Internal Coordinates


    -----------------------------------------------------------------
         Definition                    Initial Value    Approx d2E/dq
    -----------------------------------------------------------------
      1. B(C   1,C   0)                  1.5333         0.369027   
      2. B(C   2,C   1)                  1.5471         0.350825   
      3. B(C   3,C   2)                  1.5492         0.348147   
      4. B(O   4,C   0)                  1.4668         0.422031   
      5. B(O   4,C   3)                  1.4789         0.403699   
      6. B(H   5,C   0)                  1.0919         0.357632   
      7. B(H   6,C   1)                  1.0958         0.352561   
      8. B(H   7,C   1)                  1.0951         0.353431   
      9. B(H   8,C   2)                  1.0945         0.354166   
     10. B(H   9,C   2)                  1.0966         0.351438   
     11. B(H  10,C   3)                  1.0954         0.353010   
     12. B(H  11,C   3)                  1.0939         0.354989   
     13. B(H  13,C  12)                  1.0967         0.351320   
     14. B(H  14,C  12)                  1.0970         0.350998   
     15. B(O  15,C   0)                  1.5525         0.307993   
     16. B(O  15,C  12)                  1.5533         0.307098   
     17. B(C  16,C  12)                  1.5539         0.342155   
     18. B(C  17,C  16)                  1.5328         0.369806   
     19. B(C  18,C  17)                  1.5478         0.349935   
     20. B(C  19,C  18)                  1.5490         0.348346   
     21. B(O  20,C  16)                  1.4670         0.421675   
     22. B(O  20,C  19)                  1.4792         0.403304   
     23. B(H  21,C  16)                  1.0918         0.357764   
     24. B(O  22,C  17)                  1.5532         0.307220   
     25. B(H  23,C  17)                  1.0957         0.352584   
     26. B(H  24,C  18)                  1.0951         0.353442   
     27. B(H  25,C  18)                  1.0963         0.351861   
     28. B(H  26,C  19)                  1.0950         0.353491   
     29. B(H  27,C  19)                  1.0934         0.355683   
     30. B(H  28,O  22)                  1.0970         0.314336   
     31. A(O   4,C   0,H   5)          107.0226         0.328541   
     32. A(C   1,C   0,O  15)          111.3009         0.348740   
     33. A(C   1,C   0,O   4)          104.2481         0.367935   
     34. A(O   4,C   0,O  15)          110.4737         0.354548   
     35. A(C   1,C   0,H   5)          114.4369         0.323302   
     36. A(H   5,C   0,O  15)          109.1586         0.312058   
     37. A(C   0,C   1,C   2)          101.6799         0.358729   
     38. A(C   2,C   1,H   7)          112.8316         0.320016   
     39. A(C   2,C   1,H   6)          110.6711         0.319888   
     40. A(C   0,C   1,H   6)          110.0676         0.322546   
     41. A(H   6,C   1,H   7)          108.3682         0.289027   
     42. A(C   0,C   1,H   7)          113.1242         0.322677   
     43. A(C   1,C   2,H   8)          112.8320         0.320125   
     44. A(C   1,C   2,C   3)          103.1262         0.355196   
     45. A(C   1,C   2,H   9)          110.0802         0.319721   
     46. A(C   3,C   2,H   9)          110.6153         0.319321   
     47. A(C   3,C   2,H   8)          112.4040         0.319725   
     48. A(H   8,C   2,H   9)          107.7727         0.288977   
     49. A(O   4,C   3,H  10)          109.1297         0.325449   
     50. A(C   2,C   3,H  10)          112.5253         0.319554   
     51. A(C   2,C   3,O   4)          106.5278         0.361529   
     52. A(O   4,C   3,H  11)          107.1236         0.325748   
     53. A(H  10,C   3,H  11)          108.8728         0.289284   
     54. A(C   2,C   3,H  11)          112.4565         0.319846   
     55. A(C   0,O   4,C   3)          108.3150         0.371320   
     56. A(H  14,C  12,C  16)          107.6970         0.318353   
     57. A(H  13,C  12,H  14)          108.2064         0.288555   
     58. A(H  13,C  12,O  15)          109.2579         0.311014   
     59. A(H  14,C  12,O  15)          110.5245         0.310968   
     60. A(O  15,C  12,C  16)          112.7339         0.344165   
     61. A(H  13,C  12,C  16)          108.2942         0.318401   
     62. A(C   0,O  15,C  12)          115.1545         0.336112   
     63. A(C  12,C  16,C  17)          111.3087         0.357333   
     64. A(C  12,C  16,O  20)          110.4514         0.363150   
     65. A(C  17,C  16,O  20)          104.2725         0.368015   
     66. A(C  12,C  16,H  21)          109.1023         0.319346   
     67. A(C  17,C  16,H  21)          114.4428         0.323434   
     68. A(O  20,C  16,H  21)          107.0678         0.328516   
     69. A(C  16,C  17,C  18)          101.6575         0.358702   
     70. A(C  16,C  17,O  22)          110.0820         0.348717   
     71. A(C  18,C  17,O  22)          110.6986         0.345490   
     72. A(C  16,C  17,H  23)          113.1865         0.322661   
     73. A(C  18,C  17,H  23)          112.8060         0.319758   
     74. A(O  22,C  17,H  23)          108.3169         0.311215   
     75. A(C  17,C  18,C  19)          103.1343         0.355078   
     76. A(C  17,C  18,H  24)          112.7910         0.319885   
     77. A(C  19,C  18,H  24)          112.4012         0.319648   
     78. A(C  17,C  18,H  25)          110.0434         0.319651   
     79. A(C  19,C  18,H  25)          110.6967         0.319414   
     80. A(H  24,C  18,H  25)          107.7659         0.288938   
     81. A(C  18,C  19,O  20)          106.5101         0.361504   
     82. A(C  18,C  19,H  26)          112.5155         0.319655   
     83. A(O  20,C  19,H  26)          109.0958         0.325469   
     84. A(C  18,C  19,H  27)          112.4602         0.319978   
     85. A(O  20,C  19,H  27)          107.1643         0.325800   
     86. A(H  26,C  19,H  27)          108.8901         0.289434   
     87. A(C  16,O  20,C  19)          108.3134         0.371204   
     88. A(C  17,O  22,H  28)          109.6268         0.302991   
     89. D(H   7,C   1,C   0,H   5)     82.1513         0.010890   
     90. D(C   2,C   1,C   0,O  15)     79.0863         0.010890   
     91. D(H   7,C   1,C   0,O  15)    -42.1870         0.010890   
     92. D(H   6,C   1,C   0,O   4)     77.3263         0.010890   
     93. D(H   6,C   1,C   0,O  15)   -163.5729         0.010890   
     94. D(H   6,C   1,C   0,H   5)    -39.2345         0.010890   
     95. D(H   7,C   1,C   0,O   4)   -161.2879         0.010890   
     96. D(C   2,C   1,C   0,O   4)    -40.0145         0.010890 C 
     97. D(C   2,C   1,C   0,H   5)   -156.5753         0.010890   
     98. D(H   9,C   2,C   1,H   6)    160.0776         0.009912   
     99. D(H   8,C   2,C   1,C   0)    156.5478         0.009912   
    100. D(H   8,C   2,C   1,H   6)     39.6445         0.009912   
    101. D(C   3,C   2,C   1,C   0)     35.0270         0.009912 C 
    102. D(H   8,C   2,C   1,H   7)    -81.9753         0.009912   
    103. D(H   9,C   2,C   1,C   0)    -83.0191         0.009912   
    104. D(C   3,C   2,C   1,H   6)    -81.8764         0.009912   
    105. D(H   9,C   2,C   1,H   7)     38.4578         0.009912   
    106. D(C   3,C   2,C   1,H   7)    156.5039         0.009912   
    107. D(H  11,C   3,C   2,H   9)   -143.4628         0.009774   
    108. D(O   4,C   3,C   2,H   8)   -140.0066         0.009774   
    109. D(O   4,C   3,C   2,H   9)     99.4739         0.009774   
    110. D(H  10,C   3,C   2,C   1)   -137.7433         0.009774   
    111. D(H  10,C   3,C   2,H   8)    100.4468         0.009774   
    112. D(H  10,C   3,C   2,H   9)    -20.0727         0.009774   
    113. D(H  11,C   3,C   2,C   1)     98.8667         0.009774   
    114. D(O   4,C   3,C   2,C   1)    -18.1967         0.009774 C 
    115. D(H  11,C   3,C   2,H   8)    -22.9432         0.009774   
    116. D(C   3,O   4,C   0,C   1)     29.5918         0.014035 C 
    117. D(C   3,O   4,C   0,H   5)    151.2009         0.014035   
    118. D(C   3,O   4,C   0,O  15)    -90.0698         0.014035   
    119. D(C   0,O   4,C   3,C   2)     -6.8732         0.012866 C 
    120. D(C   0,O   4,C   3,H  10)    114.8547         0.012866   
    121. D(C   0,O   4,C   3,H  11)   -127.4273         0.012866   
    122. D(C   0,O  15,C  12,C  16)   -180.0000         0.007754 C 
    123. D(C  12,O  15,C   0,O   4)   -150.0000         0.007793 C 
    124. D(C  12,O  15,C   0,H   5)    -32.5789         0.007793   
    125. D(C   0,O  15,C  12,H  14)     59.4166         0.007754   
    126. D(C   0,O  15,C  12,H  13)    -59.5427         0.007754   
    127. D(C  12,O  15,C   0,C   1)     94.6875         0.007793   
    128. D(C  17,C  16,C  12,H  13)    -56.3501         0.009468   
    129. D(H  21,C  16,C  12,H  14)     59.6105         0.009468   
    130. D(C  17,C  16,C  12,O  15)     64.6583         0.009468   
    131. D(O  20,C  16,C  12,H  13)     58.9834         0.009468   
    132. D(O  20,C  16,C  12,H  14)    -57.8187         0.009468   
    133. D(O  20,C  16,C  12,O  15)    179.9918         0.009468 C 
    134. D(C  17,C  16,C  12,H  14)   -173.1522         0.009468   
    135. D(H  21,C  16,C  12,H  13)    176.4127         0.009468   
    136. D(H  21,C  16,C  12,O  15)    -62.5789         0.009468   
    137. D(C  18,C  17,C  16,C  12)     79.0777         0.010933   
    138. D(C  18,C  17,C  16,O  20)    -40.0149         0.010933 C 
    139. D(C  18,C  17,C  16,H  21)   -156.6490         0.010933   
    140. D(O  22,C  17,C  16,C  12)   -163.5555         0.010933   
    141. D(O  22,C  17,C  16,O  20)     77.3519         0.010933   
    142. D(O  22,C  17,C  16,H  21)    -39.2821         0.010933   
    143. D(H  23,C  17,C  16,C  12)    -42.1822         0.010933   
    144. D(H  23,C  17,C  16,O  20)   -161.2748         0.010933   
    145. D(H  23,C  17,C  16,H  21)     82.0911         0.010933   
    146. D(H  24,C  18,C  17,H  23)    -81.9144         0.009866   
    147. D(C  19,C  18,C  17,O  22)    -81.8596         0.009866   
    148. D(C  19,C  18,C  17,H  23)    156.5848         0.009866   
    149. D(H  24,C  18,C  17,C  16)    156.5610         0.009866   
    150. D(C  19,C  18,C  17,C  16)     35.0602         0.009866 C 
    151. D(H  24,C  18,C  17,O  22)     39.6412         0.009866   
    152. D(H  25,C  18,C  17,C  16)    -83.0677         0.009866   
    153. D(H  25,C  18,C  17,O  22)    160.0125         0.009866   
    154. D(H  25,C  18,C  17,H  23)     38.4569         0.009866   
    155. D(H  27,C  19,C  18,H  25)   -143.4666         0.009784   
    156. D(O  20,C  19,C  18,H  24)   -140.0042         0.009784   
    157. D(O  20,C  19,C  18,H  25)     99.4297         0.009784   
    158. D(H  26,C  19,C  18,C  17)   -137.7280         0.009784   
    159. D(H  26,C  19,C  18,H  24)    100.5078         0.009784   
    160. D(H  26,C  19,C  18,H  25)    -20.0583         0.009784   
    161. D(H  27,C  19,C  18,C  17)     98.8637         0.009784   
    162. D(O  20,C  19,C  18,C  17)    -18.2400         0.009784 C 
    163. D(H  27,C  19,C  18,H  24)    -22.9005         0.009784   
    164. D(C  19,O  20,C  16,C  12)    -90.0972         0.014012   
    165. D(C  19,O  20,C  16,C  17)     29.5762         0.014012 C 
    166. D(C  19,O  20,C  16,H  21)    151.2267         0.014012   
    167. D(C  16,O  20,C  19,C  18)     -6.8206         0.012841 C 
    168. D(C  16,O  20,C  19,H  26)    114.8661         0.012841   
    169. D(C  16,O  20,C  19,H  27)   -127.3909         0.012841   
    170. D(H  28,O  22,C  17,C  16)    -55.8443         0.007759   
    171. D(H  28,O  22,C  17,C  18)     55.7555         0.007759   
    172. D(H  28,O  22,C  17,H  23)    179.9189         0.007759   
    -----------------------------------------------------------------

Number of atoms                         .... 29
Number of degrees of freedom            .... 172

Time needed for optimization step       :     9.12 sec

         *************************************************************
         *                GEOMETRY OPTIMIZATION CYCLE   1            *
         *************************************************************
---------------------------------
CARTESIAN COORDINATES (ANGSTROEM)
---------------------------------
  C    -21.048012   26.221846   46.251120
  C    -20.360910   27.557763   45.943936
  C    -20.328957   28.222021   47.340823
  C    -20.110084   27.022165   48.296031
  O    -20.473106   25.807064   47.535226
  H    -20.833011   25.427741   45.533236
  H    -19.343901   27.381636   45.576021
  H    -20.897835   28.156669   45.200805
  H    -19.542920   28.977993   47.433739
  H    -21.288940   28.710114   47.547682
  H    -20.733133   27.082351   49.194985
  H    -19.064108   26.913155   48.597109
  C    -23.388936   26.110119   45.075944
  H    -23.051872   26.792177   44.286021
  H    -23.218946   25.081144   44.735866
  O    -22.586001   26.394028   46.375004
  C    -24.919958   26.298969   45.262921
  C    -25.267076   27.758911   45.575073
  C    -25.203080   28.403078   44.169147
  C    -25.732969   27.280141   43.243008
  O    -25.627899   26.019065   44.008868
  H    -25.280925   25.580865   46.001836
  O    -26.704100   27.852738   46.157041
  H    -24.576131   28.223883   46.287145
  H    -25.797146   29.320042   44.095232
  H    -24.166091   28.655183   43.918206
  H    -25.150935   27.188286   42.320015
  H    -26.786972   27.414091   42.984992
  H    -27.415045   27.393763   45.458969

----------------------------
CARTESIAN COORDINATES (A.U.)
----------------------------
  NO LB      ZA    FRAG     MASS         X           Y           Z
   0 C     6.0000    0    12.011  -39.774978   49.552107   87.401951
   1 C     6.0000    0    12.011  -38.476545   52.076624   86.821456
   2 C     6.0000    0    12.011  -38.416161   53.331890   89.461191
   3 C     6.0000    0    12.011  -38.002552   51.064491   91.266272
   4 O     8.0000    0    15.999  -38.688563   48.768283   89.828558
   5 H     1.0000    0     1.008  -39.368686   48.051467   86.045346
   6 H     1.0000    0     1.008  -36.554676   51.743793   86.126198
   7 H     1.0000    0     1.008  -39.491184   53.208393   85.417142
   8 H     1.0000    0     1.008  -36.930767   54.760470   89.636776
   9 H     1.0000    0     1.008  -40.230266   54.254253   89.852097
  10 H     1.0000    0     1.008  -39.179943   51.178226   92.965049
  11 H     1.0000    0     1.008  -36.025942   50.858493   91.835227
  12 C     6.0000    0    12.011  -44.198684   49.340975   85.181189
  13 H     1.0000    0     1.008  -43.561725   50.629878   83.688451
  14 H     1.0000    0     1.008  -43.877449   47.396492   84.538535
  15 O     8.0000    0    15.999  -42.681356   49.877484   87.636056
  16 C     6.0000    0    12.011  -47.091895   49.697849   85.534525
  17 C     6.0000    0    12.011  -47.747854   52.456740   86.124406
  18 C     6.0000    0    12.011  -47.626919   53.674038   83.467591
  19 C     6.0000    0    12.011  -48.628264   51.551995   81.717442
  20 O     8.0000    0    15.999  -48.429711   49.168907   83.164709
  21 H     1.0000    0     1.008  -47.774025   48.340830   86.930872
  22 O     8.0000    0    15.999  -50.463436   52.634046   87.224167
  23 H     1.0000    0     1.008  -46.442158   53.335410   87.470027
  24 H     1.0000    0     1.008  -48.749540   55.406850   83.327912
  25 H     1.0000    0     1.008  -45.667294   54.150449   82.993382
  26 H     1.0000    0     1.008  -47.528380   51.378415   79.973238
  27 H     1.0000    0     1.008  -50.620040   51.805125   81.229863
  28 H     1.0000    0     1.008  -51.806928   51.766710   85.905001

--------------------------------
INTERNAL COORDINATES (ANGSTROEM)
--------------------------------
 C      0   0   0     0.000000000000     0.00000000     0.00000000
 C      1   0   0     1.533334275362     0.00000000     0.00000000
 C      2   1   0     1.547103422529   101.67907390     0.00000000
 C      3   2   1     1.549188819996   103.12737509    35.02687180
 O      1   2   3     1.466801281701   104.24948604   319.98542309
 H      1   2   3     1.091872245274   114.43876658   203.42640133
 H      2   1   3     1.095759553917   110.06782188   117.34000099
 H      2   1   3     1.095088580892   113.12442239   238.72597460
 H      3   2   1     1.094523183857   112.83161078   156.54780790
 H      3   2   1     1.096628013503   110.07982737   276.98070077
 H      4   3   2     1.095413164062   112.52534669   222.25678475
 H      4   3   2     1.093891219455   112.45670684    98.86663270
 C      1   2   3     2.621726530361   110.33797382   113.84016524
 H     13   1   2     1.096719198337    91.25447882    27.52426314
 H     13   1   2     1.096969005943    92.32713369   135.80445650
 O      1   2   3     1.552547583812   111.30349807    79.08752829
 C     13   1   2     1.553914733826   145.14744240   262.02521066
 C     17  13   1     1.532759929017   111.30922110    64.64465550
 C     18  17  13     1.547794560011   101.65728453    79.07803410
 C     19  18  17     1.549033569681   103.13455028    35.06013633
 O     17  13   1     1.467031015350   110.45124842   179.97882973
 H     17  13   1     1.091771954210   109.10179123   297.40696997
 O     18  17  13     1.553231792103   110.08210179   196.44468721
 H     18  17  13     1.095741757897   113.18656447   317.81796298
 H     19  18  17     1.095080362348   112.79093589   156.56101141
 H     19  18  17     1.096300141385   110.04334161   276.93222087
 H     20  19  18     1.095042008327   112.51552509   222.27197713
 H     20  19  18     1.093359959025   112.46022916    98.86366582
 H     23  18  17     1.096998632634   109.62682202   304.15586111

---------------------------
INTERNAL COORDINATES (A.U.)
---------------------------
 C      0   0   0     0.000000000000     0.00000000     0.00000000
 C      1   0   0     2.897581852189     0.00000000     0.00000000
 C      2   1   0     2.923601769431   101.67907390     0.00000000
 C      3   2   1     2.927542599525   103.12737509    35.02687180
 O      1   2   3     2.771852715300   104.24948604   319.98542309
 H      1   2   3     2.063339516798   114.43876658   203.42640133
 H      2   1   3     2.070685465531   110.06782188   117.34000099
 H      2   1   3     2.069417510270   113.12442239   238.72597460
 H      3   2   1     2.068349064717   112.83161078   156.54780790
 H      3   2   1     2.072326616307   110.07982737   276.98070077
 H      4   3   2     2.070030883569   112.52534669   222.25678475
 H      4   3   2     2.067154825070   112.45670684    98.86663270
 C      1   2   3     4.954345140418   110.33797382   113.84016524
 H     13   1   2     2.072498930670    91.25447882    27.52426314
 H     13   1   2     2.072970998632    92.32713369   135.80445650
 O      1   2   3     2.933889743286   111.30349807    79.08752829
 C     13   1   2     2.936473282395   145.14744240   262.02521066
 C     17  13   1     2.896496494891   111.30922110    64.64465550
 C     18  17  13     2.924907829994   101.65728453    79.07803410
 C     19  18  17     2.927249218948   103.13455028    35.06013633
 O     17  13   1     2.772286848981   110.45124842   179.97882973
 H     17  13   1     2.063149994153   109.10179123   297.40696997
 O     18  17  13     2.935182709575   110.08210179   196.44468721
 H     18  17  13     2.070651835927   113.18656447   317.81796298
 H     19  18  17     2.069401979473   112.79093589   156.56101141
 H     19  18  17     2.071707027796   110.04334161   276.93222087
 H     20  19  18     2.069329500876   112.51552509   222.27197713
 H     20  19  18     2.066150888353   112.46022916    98.86366582
 H     23  18  17     2.073026984964   109.62682202   304.15586111

---------------------
BASIS SET INFORMATION
---------------------
There are 3 groups of distinct atoms

 Group   1 Type C   : 10s4p contracted to 3s2p pattern {631/31}
 Group   2 Type O   : 10s4p contracted to 3s2p pattern {631/31}
 Group   3 Type H   : 4s contracted to 2s pattern {31}

Atom   0C    basis set group =>   1
Atom   1C    basis set group =>   1
Atom   2C    basis set group =>   1
Atom   3C    basis set group =>   1
Atom   4O    basis set group =>   2
Atom   5H    basis set group =>   3
Atom   6H    basis set group =>   3
Atom   7H    basis set group =>   3
Atom   8H    basis set group =>   3
Atom   9H    basis set group =>   3
Atom  10H    basis set group =>   3
Atom  11H    basis set group =>   3
Atom  12C    basis set group =>   1
Atom  13H    basis set group =>   3
Atom  14H    basis set group =>   3
Atom  15O    basis set group =>   2
Atom  16C    basis set group =>   1
Atom  17C    basis set group =>   1
Atom  18C    basis set group =>   1
Atom  19C    basis set group =>   1
Atom  20O    basis set group =>   2
Atom  21H    basis set group =>   3
Atom  22O    basis set group =>   2
Atom  23H    basis set group =>   3
Atom  24H    basis set group =>   3
Atom  25H    basis set group =>   3
Atom  26H    basis set group =>   3
Atom  27H    basis set group =>   3
Atom  28H    basis set group =>   3
------------------------------------------------------------------------------
                           ORCA GTO INTEGRAL CALCULATION
------------------------------------------------------------------------------

                         BASIS SET STATISTICS AND STARTUP INFO

 # of primitive gaussian shells          ...  246
 # of primitive gaussian functions       ...  350
 # of contracted shells                  ...   97
 # of contracted basis functions         ...  149
 Highest angular momentum                ...    1
 Maximum contraction depth               ...    6
 Integral package used                   ... LIBINT
 Integral threshhold            Thresh   ...  2.500e-11
 Primitive cut-off              TCut     ...  2.500e-12


------------------------------ INTEGRAL EVALUATION ----------------------------


 * One electron integrals 
 Pre-screening matrix                    ... done
 Shell pair data                         ... done (   0.003 sec)

-------------------------------------------------------------------------------
                                 ORCA SCF
-------------------------------------------------------------------------------

------------
SCF SETTINGS
------------
Hamiltonian:
 Density Functional     Method          .... DFT(GTOs)
 Exchange Functional    Exchange        .... B88
   X-Alpha parameter    XAlpha          ....  0.666667
   Becke's b parameter  XBeta           ....  0.004200
 Correlation Functional Correlation     .... LYP
 LDA part of GGA corr.  LDAOpt          .... VWN-5
 Gradients option       PostSCFGGA      .... off
 Hybrid DFT is turned on
   Fraction HF Exchange ScalHFX         ....  0.200000
   Scaling of DF-GGA-X  ScalDFX         ....  0.720000
   Scaling of DF-GGA-C  ScalDFC         ....  0.810000
   Scaling of DF-LDA-C  ScalLDAC        ....  1.000000
   Perturbative correction              ....  0.000000
   Density functional embedding theory  .... OFF
   NL short-range parameter             ....  4.800000


General Settings:
 Integral files         IntName         .... project_8050/ensemble_210_180
 Hartree-Fock type      HFTyp           .... RHF
 Total Charge           Charge          ....    0
 Multiplicity           Mult            ....    1
 Number of Electrons    NEL             ....  102
 Basis Dimension        Dim             ....  149
 Nuclear Repulsion      ENuc            ....    849.0840711744 Eh

Convergence Acceleration:
 DIIS                   CNVDIIS         .... on
   Start iteration      DIISMaxIt       ....    12
   Startup error        DIISStart       ....  0.200000
   # of expansion vecs  DIISMaxEq       ....     5
   Bias factor          DIISBfac        ....   1.050
   Max. coefficient     DIISMaxC        ....  10.000
 Newton-Raphson         CNVNR           .... off
 SOSCF                  CNVSOSCF        .... on
   Start iteration      SOSCFMaxIt      ....   150
   Startup grad/error   SOSCFStart      ....  0.003300
 Level Shifting         CNVShift        .... on
   Level shift para.    LevelShift      ....    0.2500
   Turn off err/grad.   ShiftErr        ....    0.0010
 Zerner damping         CNVZerner       .... off
 Static damping         CNVDamp         .... on
   Fraction old density DampFac         ....    0.7000
   Max. Damping (<1)    DampMax         ....    0.9800
   Min. Damping (>=0)   DampMin         ....    0.0000
   Turn off err/grad.   DampErr         ....    0.1000
 Fernandez-Rico         CNVRico         .... off

SCF Procedure:
 Maximum # iterations   MaxIter         ....   125
 SCF integral mode      SCFMode         .... Direct
   Integral package                     .... LIBINT
 Reset frequency        DirectResetFreq ....    20
 Integral Threshold     Thresh          ....  2.500e-11 Eh
 Primitive CutOff       TCut            ....  2.500e-12 Eh

Convergence Tolerance:
 Convergence Check Mode ConvCheckMode   .... Total+1el-Energy
 Convergence forced     ConvForced      .... 0
 Energy Change          TolE            ....  1.000e-08 Eh
 1-El. energy change                    ....  1.000e-05 Eh
 Orbital Gradient       TolG            ....  1.000e-05
 Orbital Rotation angle TolX            ....  1.000e-05
 DIIS Error             TolErr          ....  5.000e-07


Diagonalization of the overlap matrix:
Smallest eigenvalue                        ... 4.215e-03
Time for diagonalization                   ...    0.005 sec
Threshold for overlap eigenvalues          ... 1.000e-08
Number of eigenvalues below threshold      ... 0
Time for construction of square roots      ...    0.051 sec
Total time needed                          ...    0.056 sec

-------------------
DFT GRID GENERATION
-------------------

General Integration Accuracy     IntAcc      ...  4.340
Radial Grid Type                 RadialGrid  ... Gauss-Chebyshev
Angular Grid (max. acc.)         AngularGrid ... Lebedev-110
Angular grid pruning method      GridPruning ... 3 (G Style)
Weight generation scheme         WeightScheme... Becke
Basis function cutoff            BFCut       ...    1.0000e-11
Integration weight cutoff        WCut        ...    1.0000e-14
Grids for H and He will be reduced by one unit

# of grid points (after initial pruning)     ...  34472 (   0.0 sec)
# of grid points (after weights+screening)   ...  31075 (   0.2 sec)
nearest neighbour list constructed           ...    0.0 sec
Grid point re-assignment to atoms done       ...    0.0 sec
Grid point division into batches done        ...    0.0 sec
Reduced shell lists constructed in    0.4 sec

Total number of grid points                  ...    31075
Total number of batches                      ...      500
Average number of points per batch           ...       62
Average number of grid points per atom       ...     1072
Average number of shells per batch           ...    56.89 (58.65%)
Average number of basis functions per batch  ...    92.00 (61.74%)
Average number of large shells per batch     ...    40.08 (70.46%)
Average number of large basis fcns per batch ...    66.21 (71.96%)
Maximum spatial batch extension              ...  19.44, 20.62, 18.98 au
Average spatial batch extension              ...   3.26,  3.51,  3.40 au

Time for grid setup =    5.389 sec

------------------------------
INITIAL GUESS: MODEL POTENTIAL
------------------------------
Loading Hartree-Fock densities                     ... done
Calculating cut-offs                               ... done
Setting up the integral package                    ... done
Initializing the effective Hamiltonian             ... done
Starting the Coulomb interaction                   ... done (   0.4 sec)
Reading the grid                                   ... done
Mapping shells                                     ... done
Starting the XC term evaluation                    ... done (   0.4 sec)
  promolecular density results
     # of electrons  =    101.994202903
     EX              =    -83.659992732
     EC              =     -3.455142307
     EX+EC           =    -87.115135038
Transforming the Hamiltonian                       ... done (   0.2 sec)
Diagonalizing the Hamiltonian                      ... done (   0.0 sec)
Back transforming the eigenvectors                 ... done (   0.0 sec)
Now organizing SCF variables                       ... done
                      ------------------
                      INITIAL GUESS DONE (   7.0 sec)
                      ------------------
--------------
SCF ITERATIONS
--------------
ITER       Energy         Delta-E        Max-DP      RMS-DP      [F,P]     Damp
               ***  Starting incremental Fock matrix formation  ***
  0   -652.5391516325   0.000000000000 0.07757675  0.00302262  0.2360879 0.7000
  1   -652.6785158029  -0.139364170334 0.04349723  0.00207095  0.0917144 0.7000
                               ***Turning on DIIS***
  2   -652.7308587519  -0.052342949080 0.05826019  0.00331542  0.0316605 0.0000
  3   -652.8169224508  -0.086063698808 0.03132737  0.00137649  0.0523635 0.0000
  4   -652.8343608394  -0.017438388664 0.00847903  0.00042852  0.0110187 0.0000
  5   -652.8353594499  -0.000998610446 0.00274135  0.00013049  0.0038514 0.0000
                      *** Initiating the SOSCF procedure ***
                           *** Shutting down DIIS ***
                      *** Re-Reading the Fockian *** 
                      *** Removing any level shift *** 
ITER      Energy       Delta-E        Grad      Rot      Max-DP    RMS-DP
  6   -652.83542973  -0.0000702814  0.000212  0.000212  0.000865  0.000054
               *** Restarting incremental Fock matrix formation ***
  7   -652.83543270  -0.0000029703  0.000104  0.000149  0.000910  0.000029
  8   -652.83543153   0.0000011722  0.000159  0.000124  0.000480  0.000017
  9   -652.83543375  -0.0000022164  0.000024  0.000040  0.000182  0.000006
 10   -652.83543368   0.0000000705  0.000038  0.000026  0.000122  0.000004
 11   -652.83543380  -0.0000001268  0.000004  0.000005  0.000022  0.000001
 12   -652.83543380   0.0000000016  0.000006  0.000003  0.000014  0.000000
                  ***Gradient check signals convergence***
              ***Rediagonalizing the Fockian in SOSCF/NRSCF***

               *****************************************************
               *                     SUCCESS                       *
               *           SCF CONVERGED AFTER  13 CYCLES          *
               *****************************************************

Setting up the final grid:

General Integration Accuracy     IntAcc      ...  4.670
Radial Grid Type                 RadialGrid  ... Gauss-Chebyshev
Angular Grid (max. acc.)         AngularGrid ... Lebedev-302
Angular grid pruning method      GridPruning ... 3 (G Style)
Weight generation scheme         WeightScheme... Becke
Basis function cutoff            BFCut       ...    1.0000e-11
Integration weight cutoff        WCut        ...    1.0000e-14
Grids for H and He will be reduced by one unit

# of grid points (after initial pruning)     ... 135060 (   0.1 sec)
# of grid points (after weights+screening)   ... 119230 (   0.9 sec)
nearest neighbour list constructed           ...    0.0 sec
Grid point re-assignment to atoms done       ...    0.0 sec
Grid point division into batches done        ...    0.6 sec
Reduced shell lists constructed in    1.7 sec

Total number of grid points                  ...   119230
Total number of batches                      ...     1878
Average number of points per batch           ...       63
Average number of grid points per atom       ...     4111
Average number of shells per batch           ...    51.91 (53.51%)
Average number of basis functions per batch  ...    84.28 (56.56%)
Average number of large shells per batch     ...    35.87 (69.10%)
Average number of large basis fcns per batch ...    59.42 (70.51%)
Maximum spatial batch extension              ...  18.45, 18.51, 20.85 au
Average spatial batch extension              ...   2.14,  2.28,  2.24 au

Final grid set up in    3.4 sec
Final integration                            ... done (   5.8 sec)
Change in XC energy                          ...    -0.000057110
Integrated number of electrons               ...   101.999623614
Previous integrated no of electrons          ...   102.001063509

----------------
TOTAL SCF ENERGY
----------------

Total Energy       :         -652.83549091 Eh          -17764.55684 eV

Components:
Nuclear Repulsion  :          849.08407117 Eh           23104.75220 eV
Electronic Energy  :        -1501.91956209 Eh          -40869.30904 eV
One Electron Energy:        -2575.81134512 Eh          -70091.39008 eV
Two Electron Energy:         1073.89178303 Eh           29222.08104 eV

Virial components:
Potential Energy   :        -1301.73168818 Eh          -35421.92005 eV
Kinetic Energy     :          648.89619727 Eh           17657.36321 eV
Virial Ratio       :            2.00607076


DFT components:
N(Alpha)           :       50.999811806861 electrons
N(Beta)            :       50.999811806861 electrons
N(Total)           :      101.999623613723 electrons
E(X)               :      -67.585033050611 Eh       
E(C)               :       -4.067360013841 Eh       
E(XC)              :      -71.652393064451 Eh       
DFET-embed. en.    :        0.000000000000 Eh       

---------------
SCF CONVERGENCE
---------------

  Last Energy change         ...   -2.2160e-09  Tolerance :   1.0000e-08
  Last MAX-Density change    ...    2.9718e-06  Tolerance :   1.0000e-07
  Last RMS-Density change    ...    1.1150e-07  Tolerance :   5.0000e-09
  Last Orbital Gradient      ...    3.8199e-07  Tolerance :   1.0000e-05
  Last Orbital Rotation      ...    6.8367e-07  Tolerance :   1.0000e-05

             **** THE GBW FILE WAS UPDATED (project_8050/ensemble_210_180.gbw) ****
             **** DENSITY FILE WAS UPDATED (project_8050/ensemble_210_180.scfp) ****
             **** ENERGY FILE WAS UPDATED (project_8050/ensemble_210_180.en.tmp) ****
             **** THE GBW FILE WAS UPDATED (project_8050/ensemble_210_180.gbw) ****
             **** DENSITY FILE WAS UPDATED (project_8050/ensemble_210_180.scfp) ****
----------------
ORBITAL ENERGIES
----------------

  NO   OCC          E(Eh)            E(eV) 
   0   2.0000     -19.151297      -521.1333 
   1   2.0000     -19.151120      -521.1285 
   2   2.0000     -19.145468      -520.9747 
   3   2.0000     -19.142470      -520.8931 
   4   2.0000     -10.287440      -279.9355 
   5   2.0000     -10.243213      -278.7320 
   6   2.0000     -10.240471      -278.6574 
   7   2.0000     -10.237025      -278.5636 
   8   2.0000     -10.236764      -278.5565 
   9   2.0000     -10.227643      -278.3083 
  10   2.0000     -10.195820      -277.4424 
  11   2.0000     -10.194339      -277.4021 
  12   2.0000     -10.190307      -277.2924 
  13   2.0000      -1.036478       -28.2040 
  14   2.0000      -1.034274       -28.1440 
  15   2.0000      -0.965054       -26.2605 
  16   2.0000      -0.961638       -26.1675 
  17   2.0000      -0.790950       -21.5229 
  18   2.0000      -0.784513       -21.3477 
  19   2.0000      -0.767228       -20.8773 
  20   2.0000      -0.732234       -19.9251 
  21   2.0000      -0.673246       -18.3200 
  22   2.0000      -0.603812       -16.4305 
  23   2.0000      -0.601056       -16.3556 
  24   2.0000      -0.590503       -16.0684 
  25   2.0000      -0.578811       -15.7503 
  26   2.0000      -0.515571       -14.0294 
  27   2.0000      -0.508048       -13.8247 
  28   2.0000      -0.493859       -13.4386 
  29   2.0000      -0.490968       -13.3599 
  30   2.0000      -0.465197       -12.6586 
  31   2.0000      -0.447714       -12.1829 
  32   2.0000      -0.444311       -12.0903 
  33   2.0000      -0.435283       -11.8447 
  34   2.0000      -0.422388       -11.4938 
  35   2.0000      -0.417820       -11.3695 
  36   2.0000      -0.404303       -11.0016 
  37   2.0000      -0.389540       -10.5999 
  38   2.0000      -0.374881       -10.2010 
  39   2.0000      -0.367430        -9.9983 
  40   2.0000      -0.364178        -9.9098 
  41   2.0000      -0.359181        -9.7738 
  42   2.0000      -0.355900        -9.6845 
  43   2.0000      -0.326074        -8.8729 
  44   2.0000      -0.318410        -8.6644 
  45   2.0000      -0.314175        -8.5491 
  46   2.0000      -0.302185        -8.2229 
  47   2.0000      -0.272394        -7.4122 
  48   2.0000      -0.262917        -7.1543 
  49   2.0000      -0.253460        -6.8970 
  50   2.0000      -0.248401        -6.7593 
  51   0.0000       0.035931         0.9777 
  52   0.0000       0.051222         1.3938 
  53   0.0000       0.069615         1.8943 
  54   0.0000       0.090560         2.4643 
  55   0.0000       0.096266         2.6195 
  56   0.0000       0.110291         3.0012 
  57   0.0000       0.111669         3.0387 
  58   0.0000       0.116433         3.1683 
  59   0.0000       0.127928         3.4811 
  60   0.0000       0.134602         3.6627 
  61   0.0000       0.143167         3.8958 
  62   0.0000       0.144405         3.9295 
  63   0.0000       0.151979         4.1356 
  64   0.0000       0.157447         4.2844 
  65   0.0000       0.161677         4.3994 
  66   0.0000       0.167569         4.5598 
  67   0.0000       0.173556         4.7227 
  68   0.0000       0.182623         4.9694 
  69   0.0000       0.189290         5.1508 
  70   0.0000       0.200061         5.4439 
  71   0.0000       0.213705         5.8152 
  72   0.0000       0.221799         6.0355 
  73   0.0000       0.224629         6.1125 
  74   0.0000       0.232954         6.3390 
  75   0.0000       0.241339         6.5672 
  76   0.0000       0.255164         6.9434 
  77   0.0000       0.262267         7.1366 
  78   0.0000       0.273513         7.4427 
  79   0.0000       0.290732         7.9112 
  80   0.0000       0.297823         8.1042 
  81   0.0000       0.518010        14.0958 
  82   0.0000       0.540917        14.7191 
  83   0.0000       0.541993        14.7484 
  84   0.0000       0.545572        14.8458 
  85   0.0000       0.551651        15.0112 
  86   0.0000       0.559048        15.2125 
  87   0.0000       0.569958        15.5093 
  88   0.0000       0.582197        15.8424 
  89   0.0000       0.586526        15.9602 
  90   0.0000       0.590772        16.0757 
  91   0.0000       0.603519        16.4226 
  92   0.0000       0.621237        16.9047 
  93   0.0000       0.625727        17.0269 
  94   0.0000       0.633890        17.2490 
  95   0.0000       0.638905        17.3855 
  96   0.0000       0.645575        17.5670 
  97   0.0000       0.665628        18.1127 
  98   0.0000       0.683781        18.6066 
  99   0.0000       0.696548        18.9540 
 100   0.0000       0.738181        20.0869 
 101   0.0000       0.743023        20.2187 
 102   0.0000       0.782411        21.2905 
 103   0.0000       0.805509        21.9190 
 104   0.0000       0.808516        22.0008 
 105   0.0000       0.819214        22.2919 
 106   0.0000       0.834364        22.7042 
 107   0.0000       0.845637        23.0110 
 108   0.0000       0.858960        23.3735 
 109   0.0000       0.862195        23.4615 
 110   0.0000       0.870965        23.7001 
 111   0.0000       0.885039        24.0831 
 112   0.0000       0.892491        24.2859 
 113   0.0000       0.901962        24.5436 
 114   0.0000       0.922212        25.0947 
 115   0.0000       0.927978        25.2516 
 116   0.0000       0.932570        25.3765 
 117   0.0000       0.938595        25.5405 
 118   0.0000       0.949676        25.8420 
 119   0.0000       0.958856        26.0918 
 120   0.0000       0.970358        26.4048 
 121   0.0000       0.981103        26.6972 
 122   0.0000       0.997507        27.1436 
 123   0.0000       1.018732        27.7211 
 124   0.0000       1.033874        28.1331 
 125   0.0000       1.051829        28.6217 
 126   0.0000       1.071028        29.1441 
 127   0.0000       1.096696        29.8426 
 128   0.0000       1.110160        30.2090 
 129   0.0000       1.134109        30.8607 
 130   0.0000       1.158653        31.5285 
 131   0.0000       1.241219        33.7753 
 132   0.0000       1.266826        34.4721 
 133   0.0000       1.281008        34.8580 
 134   0.0000       1.310384        35.6574 
 135   0.0000       1.322797        35.9951 
 136   0.0000       1.361004        37.0348 
 137   0.0000       1.394710        37.9520 
 138   0.0000       1.401353        38.1328 
 139   0.0000       1.431666        38.9576 
 140   0.0000       1.495573        40.6966 
 141   0.0000       1.568204        42.6730 
 142   0.0000       1.605812        43.6964 
 143   0.0000       1.687145        45.9096 
 144   0.0000       1.708018        46.4775 
 145   0.0000       1.834801        49.9275 
 146   0.0000       1.889748        51.4227 
 147   0.0000       2.053910        55.8897 
 148   0.0000       2.088912        56.8422 

                    ********************************
                    * MULLIKEN POPULATION ANALYSIS *
                    ********************************

-----------------------
MULLIKEN ATOMIC CHARGES
-----------------------
   0 C :    0.299202
   1 C :   -0.270399
   2 C :   -0.299969
   3 C :   -0.002800
   4 O :   -0.500324
   5 H :    0.146615
   6 H :    0.149278
   7 H :    0.144285
   8 H :    0.143138
   9 H :    0.161977
  10 H :    0.156122
  11 H :    0.142763
  12 C :   -0.025188
  13 H :    0.125042
  14 H :    0.150750
  15 O :   -0.519747
  16 C :    0.062423
  17 C :    0.078513
  18 C :   -0.309125
  19 C :   -0.028925
  20 O :   -0.518897
  21 H :    0.181993
  22 O :   -0.593972
  23 H :    0.178301
  24 H :    0.164729
  25 H :    0.143910
  26 H :    0.147195
  27 H :    0.146870
  28 H :    0.346241
Sum of atomic charges:   -0.0000000

--------------------------------
MULLIKEN REDUCED ORBITAL CHARGES
--------------------------------
  0 C s       :     3.228844  s :     3.228844
      pz      :     0.793005  p :     2.471953
      px      :     0.688839
      py      :     0.990109
  1 C s       :     3.304047  s :     3.304047
      pz      :     0.986354  p :     2.966352
      px      :     1.033353
      py      :     0.946645
  2 C s       :     3.315927  s :     3.315927
      pz      :     0.904830  p :     2.984041
      px      :     1.086599
      py      :     0.992613
  3 C s       :     3.261939  s :     3.261939
      pz      :     0.942545  p :     2.740860
      px      :     1.057817
      py      :     0.740498
  4 O s       :     3.949621  s :     3.949621
      pz      :     1.317903  p :     4.550703
      px      :     1.714859
      py      :     1.517940
  5 H s       :     0.853385  s :     0.853385
  6 H s       :     0.850722  s :     0.850722
  7 H s       :     0.855715  s :     0.855715
  8 H s       :     0.856862  s :     0.856862
  9 H s       :     0.838023  s :     0.838023
 10 H s       :     0.843878  s :     0.843878
 11 H s       :     0.857237  s :     0.857237
 12 C s       :     3.281097  s :     3.281097
      pz      :     0.793714  p :     2.744091
      px      :     0.879123
      py      :     1.071254
 13 H s       :     0.874958  s :     0.874958
 14 H s       :     0.849250  s :     0.849250
 15 O s       :     3.949793  s :     3.949793
      pz      :     1.464934  p :     4.569954
      px      :     1.249973
      py      :     1.855048
 16 C s       :     3.281538  s :     3.281538
      pz      :     0.791921  p :     2.656038
      px      :     0.875288
      py      :     0.988829
 17 C s       :     3.298967  s :     3.298967
      pz      :     0.928295  p :     2.622520
      px      :     0.759920
      py      :     0.934305
 18 C s       :     3.317356  s :     3.317356
      pz      :     0.918654  p :     2.991769
      px      :     1.063916
      py      :     1.009199
 19 C s       :     3.267714  s :     3.267714
      pz      :     0.946186  p :     2.761211
      px      :     1.081437
      py      :     0.733588
 20 O s       :     3.946719  s :     3.946719
      pz      :     1.336481  p :     4.572179
      px      :     1.737255
      py      :     1.498442
 21 H s       :     0.818007  s :     0.818007
 22 O s       :     3.952014  s :     3.952014
      pz      :     1.599437  p :     4.641958
      px      :     1.212707
      py      :     1.829815
 23 H s       :     0.821699  s :     0.821699
 24 H s       :     0.835271  s :     0.835271
 25 H s       :     0.856090  s :     0.856090
 26 H s       :     0.852805  s :     0.852805
 27 H s       :     0.853130  s :     0.853130
 28 H s       :     0.653759  s :     0.653759


                     *******************************
                     * LOEWDIN POPULATION ANALYSIS *
                     *******************************

----------------------
LOEWDIN ATOMIC CHARGES
----------------------
   0 C :    0.190982
   1 C :   -0.225590
   2 C :   -0.217159
   3 C :   -0.027876
   4 O :   -0.300476
   5 H :    0.103623
   6 H :    0.116057
   7 H :    0.116307
   8 H :    0.114494
   9 H :    0.118468
  10 H :    0.109956
  11 H :    0.102477
  12 C :   -0.047311
  13 H :    0.090414
  14 H :    0.109126
  15 O :   -0.373612
  16 C :    0.028622
  17 C :    0.043526
  18 C :   -0.239077
  19 C :   -0.039786
  20 O :   -0.322527
  21 H :    0.128411
  22 O :   -0.441121
  23 H :    0.131916
  24 H :    0.128046
  25 H :    0.111973
  26 H :    0.103997
  27 H :    0.102616
  28 H :    0.283525

-------------------------------
LOEWDIN REDUCED ORBITAL CHARGES
-------------------------------
  0 C s       :     2.979280  s :     2.979280
      pz      :     0.917498  p :     2.829738
      px      :     0.831067
      py      :     1.081174
  1 C s       :     2.979649  s :     2.979649
      pz      :     1.076798  p :     3.245941
      px      :     1.108031
      py      :     1.061111
  2 C s       :     2.973385  s :     2.973385
      pz      :     1.030168  p :     3.243774
      px      :     1.133097
      py      :     1.080509
  3 C s       :     2.983926  s :     2.983926
      pz      :     1.039979  p :     3.043951
      px      :     1.119620
      py      :     0.884352
  4 O s       :     3.608043  s :     3.608043
      pz      :     1.379990  p :     4.692433
      px      :     1.748196
      py      :     1.564247
  5 H s       :     0.896377  s :     0.896377
  6 H s       :     0.883943  s :     0.883943
  7 H s       :     0.883693  s :     0.883693
  8 H s       :     0.885506  s :     0.885506
  9 H s       :     0.881532  s :     0.881532
 10 H s       :     0.890044  s :     0.890044
 11 H s       :     0.897523  s :     0.897523
 12 C s       :     3.006053  s :     3.006053
      pz      :     0.906252  p :     3.041258
      px      :     1.006666
      py      :     1.128340
 13 H s       :     0.909586  s :     0.909586
 14 H s       :     0.890874  s :     0.890874
 15 O s       :     3.663067  s :     3.663067
      pz      :     1.519571  p :     4.710545
      px      :     1.308497
      py      :     1.882478
 16 C s       :     2.966366  s :     2.966366
      pz      :     0.912712  p :     3.005012
      px      :     1.010311
      py      :     1.081990
 17 C s       :     2.976273  s :     2.976273
      pz      :     1.045207  p :     2.980201
      px      :     0.871968
      py      :     1.063026
 18 C s       :     2.982461  s :     2.982461
      pz      :     1.044295  p :     3.256616
      px      :     1.121448
      py      :     1.090873
 19 C s       :     2.983891  s :     2.983891
      pz      :     1.042135  p :     3.055895
      px      :     1.138296
      py      :     0.875465
 20 O s       :     3.603482  s :     3.603482
      pz      :     1.399084  p :     4.719045
      px      :     1.767830
      py      :     1.552131
 21 H s       :     0.871589  s :     0.871589
 22 O s       :     3.694745  s :     3.694745
      pz      :     1.630653  p :     4.746377
      px      :     1.273517
      py      :     1.842207
 23 H s       :     0.868084  s :     0.868084
 24 H s       :     0.871954  s :     0.871954
 25 H s       :     0.888027  s :     0.888027
 26 H s       :     0.896003  s :     0.896003
 27 H s       :     0.897384  s :     0.897384
 28 H s       :     0.716475  s :     0.716475


                      *****************************
                      * MAYER POPULATION ANALYSIS *
                      *****************************

  NA   - Mulliken gross atomic population
  ZA   - Total nuclear charge
  QA   - Mulliken gross atomic charge
  VA   - Mayer's total valence
  BVA  - Mayer's bonded valence
  FA   - Mayer's free valence

  ATOM       NA         ZA         QA         VA         BVA        FA
  0 C      5.7008     6.0000     0.2992     3.6523     3.6523    -0.0000
  1 C      6.2704     6.0000    -0.2704     3.7231     3.7231    -0.0000
  2 C      6.3000     6.0000    -0.3000     3.7634     3.7634     0.0000
  3 C      6.0028     6.0000    -0.0028     3.6541     3.6541    -0.0000
  4 O      8.5003     8.0000    -0.5003     1.8251     1.8251    -0.0000
  5 H      0.8534     1.0000     0.1466     0.9321     0.9321     0.0000
  6 H      0.8507     1.0000     0.1493     0.9304     0.9304     0.0000
  7 H      0.8557     1.0000     0.1443     0.9408     0.9408    -0.0000
  8 H      0.8569     1.0000     0.1431     0.9364     0.9364     0.0000
  9 H      0.8380     1.0000     0.1620     0.9344     0.9344     0.0000
 10 H      0.8439     1.0000     0.1561     0.9247     0.9247     0.0000
 11 H      0.8572     1.0000     0.1428     0.9282     0.9282    -0.0000
 12 C      6.0252     6.0000    -0.0252     3.6401     3.6401    -0.0000
 13 H      0.8750     1.0000     0.1250     0.9290     0.9290    -0.0000
 14 H      0.8493     1.0000     0.1507     0.9274     0.9274    -0.0000
 15 O      8.5197     8.0000    -0.5197     1.7669     1.7669    -0.0000
 16 C      5.9376     6.0000     0.0624     3.5851     3.5851    -0.0000
 17 C      5.9215     6.0000     0.0785     3.6300     3.6300    -0.0000
 18 C      6.3091     6.0000    -0.3091     3.7073     3.7073    -0.0000
 19 C      6.0289     6.0000    -0.0289     3.6625     3.6625    -0.0000
 20 O      8.5189     8.0000    -0.5189     1.7710     1.7710     0.0000
 21 H      0.8180     1.0000     0.1820     0.9312     0.9312     0.0000
 22 O      8.5940     8.0000    -0.5940     1.7619     1.7619    -0.0000
 23 H      0.8217     1.0000     0.1783     0.9415     0.9415    -0.0000
 24 H      0.8353     1.0000     0.1647     0.9392     0.9392    -0.0000
 25 H      0.8561     1.0000     0.1439     0.9344     0.9344     0.0000
 26 H      0.8528     1.0000     0.1472     0.9272     0.9272    -0.0000
 27 H      0.8531     1.0000     0.1469     0.9294     0.9294    -0.0000
 28 H      0.6538     1.0000     0.3462     0.8498     0.8498    -0.0000

  Mayer bond orders larger than 0.100000
B(  0-C ,  1-C ) :   0.9284 B(  0-C ,  4-O ) :   0.9330 B(  0-C ,  5-H ) :   0.9208 
B(  0-C , 15-O ) :   0.8251 B(  1-C ,  2-C ) :   0.9569 B(  1-C ,  6-H ) :   0.9318 
B(  1-C ,  7-H ) :   0.9370 B(  2-C ,  3-C ) :   0.9540 B(  2-C ,  8-H ) :   0.9445 
B(  2-C ,  9-H ) :   0.9438 B(  3-C ,  4-O ) :   0.8371 B(  3-C , 10-H ) :   0.9330 
B(  3-C , 11-H ) :   0.9383 B( 12-C , 13-H ) :   0.9152 B( 12-C , 14-H ) :   0.9168 
B( 12-C , 15-O ) :   0.8519 B( 12-C , 16-C ) :   0.8931 B( 16-C , 17-C ) :   0.9077 
B( 16-C , 20-O ) :   0.8468 B( 16-C , 21-H ) :   0.9245 B( 17-C , 18-C ) :   0.9166 
B( 17-C , 22-O ) :   0.8886 B( 17-C , 23-H ) :   0.9215 B( 18-C , 19-C ) :   0.9402 
B( 18-C , 24-H ) :   0.9370 B( 18-C , 25-H ) :   0.9316 B( 19-C , 20-O ) :   0.8447 
B( 19-C , 26-H ) :   0.9348 B( 19-C , 27-H ) :   0.9374 B( 22-O , 28-H ) :   0.8112 


-------
TIMINGS
-------

Total SCF time: 0 days 0 hours 4 min 47 sec 

Total time                  ....     287.908 sec
Sum of individual times     ....     263.960 sec  ( 91.7%)

Fock matrix formation       ....     245.958 sec  ( 85.4%)
  XC integration            ....      57.204 sec  ( 23.3% of F)
    Basis function eval.    ....       3.278 sec  (  5.7% of XC)
    Density eval.           ....       1.758 sec  (  3.1% of XC)
    XC-Functional eval.     ....       1.530 sec  (  2.7% of XC)
    XC-Potential eval.      ....       1.395 sec  (  2.4% of XC)
Diagonalization             ....       3.055 sec  (  1.1%)
Density matrix formation    ....       0.012 sec  (  0.0%)
Population analysis         ....       0.638 sec  (  0.2%)
Initial guess               ....       1.573 sec  (  0.5%)
Orbital Transformation      ....       0.000 sec  (  0.0%)
Orbital Orthonormalization  ....       0.000 sec  (  0.0%)
DIIS solution               ....       2.268 sec  (  0.8%)
SOSCF solution              ....       1.698 sec  (  0.6%)
Grid generation             ....       8.758 sec  (  3.0%)

-------------------------   --------------------
FINAL SINGLE POINT ENERGY      -652.835490912409
-------------------------   --------------------

------------------------------------------------------------------------------
                         ORCA SCF GRADIENT CALCULATION
------------------------------------------------------------------------------

Gradient of the Kohn-Sham DFT energy:
Kohn-Sham wavefunction type      ... RKS
Hartree-Fock exchange scaling    ...    0.200
Number of operators              ...    1
Number of atoms                  ...   29
Basis set dimensions             ...  149
Integral neglect threshold       ... 2.5e-11
Integral primitive cutoff        ... 2.5e-12

Nuclear repulsion gradient       ... done
One Electron Gradient            ... done
Pre-screening matrix             ... done
Starting the two electron gradient:
Two electron gradient done
Exchange-correlation gradient    ... done

------------------
CARTESIAN GRADIENT
------------------

   1   C   :    0.013522550    0.004843846   -0.005115986
   2   C   :    0.008403591   -0.003150511   -0.004135023
   3   C   :   -0.000232779   -0.000658495   -0.001743949
   4   C   :    0.000392941   -0.005380099   -0.003802410
   5   O   :    0.017609377   -0.007441507    0.019985034
   6   H   :    0.004040951    0.002235074   -0.001106913
   7   H   :    0.000071408    0.002151778    0.000241218
   8   H   :    0.000144533    0.001492031   -0.000589132
   9   H   :   -0.000606708    0.000663359    0.000148755
  10   H   :   -0.000565098    0.001829566    0.000794331
  11   H   :   -0.000430307    0.001031449    0.001636512
  12   H   :   -0.000372520    0.001137453    0.000816621
  13   C   :   -0.015586866    0.000669285   -0.010911638
  14   H   :   -0.003990466    0.000181156   -0.001234415
  15   H   :   -0.003496467   -0.000112579   -0.003512873
  16   O   :   -0.005034454    0.006524591    0.024039902
  17   C   :   -0.014029788   -0.002914945   -0.018244184
  18   C   :    0.032130798    0.001953718    0.000711088
  19   C   :    0.004741441    0.000888704    0.000111700
  20   C   :   -0.001715647   -0.003233767    0.003274824
  21   O   :   -0.006177039    0.000480494   -0.000113580
  22   H   :    0.002448904   -0.003600603   -0.001063249
  23   O   :    0.008175939    0.022899597    0.047081380
  24   H   :    0.010401694    0.002224542   -0.003597703
  25   H   :   -0.000528317    0.001607280   -0.003020843
  26   H   :    0.000410495   -0.000856287   -0.000436605
  27   H   :    0.001116131    0.000109068    0.000001275
  28   H   :    0.000341073    0.000282537    0.000666560
  29   H   :   -0.051185370   -0.025856737   -0.040880698

Difference to translation invariance:
           :    0.0000000000   -0.0000000000   -0.0000000000

Norm of the cartesian gradient     ...    0.1087333360
RMS gradient                       ...    0.0116574373
MAX gradient                       ...    0.0511853705

-------
TIMINGS
-------

Total SCF gradient time            ...       23.217 sec

One electron gradient       ....       0.274 sec  (  1.2%)
Prescreening matrices       ....       0.040 sec  (  0.2%)
Two electron gradient       ....      12.361 sec  ( 53.2%)
XC gradient                 ....       9.083 sec  ( 39.1%)
------------------------------------------------------------------------------
                         ORCA GEOMETRY RELAXATION STEP
------------------------------------------------------------------------------

Reading the OPT-File                    .... done
Getting information on internals        .... done
Copying old internal coords+grads       .... done
Making the new internal coordinates     .... (new redundants).... done
Validating the new internal coordinates .... (new redundants).... done
Calculating the B-matrix                .... done
Calculating the G,G- and P matrices     .... done
Transforming gradient to internals      .... done
Projecting the internal gradient        .... done
Number of atoms                         ....  29
Number of internal coordinates          .... 172
Current Energy                          ....  -652.835490912 Eh
Current gradient norm                   ....     0.108733336 Eh/bohr
Maximum allowed component of the step   ....  0.300
Current trust radius                    ....  0.300
Evaluating the initial hessian          ....  (Almloef) done
Projecting the Hessian                  .... done
Forming the augmented Hessian           .... done
Diagonalizing the augmented Hessian     .... done
Last element of RFO vector              ....  0.943702785
Lowest eigenvalues of augmented Hessian:
 -0.038472399  0.007865880  0.032980139  0.033101451  0.036564969
Length of the computed step             ....  0.350528349
Warning: the length of the step is outside the trust region - taking restricted step instead
The input lambda is                     ....    -0.038472
   iter:   1  x=   -0.071720  g=    0.988648 f(x)=     0.032870
   iter:   2  x=   -0.084114  g=    0.604798 f(x)=     0.007496
   iter:   3  x=   -0.085047  g=    0.528316 f(x)=     0.000493
   iter:   4  x=   -0.085052  g=    0.523255 f(x)=     0.000002
   iter:   5  x=   -0.085052  g=    0.523230 f(x)=     0.000000
   iter:   6  x=   -0.085052  g=    0.523230 f(x)=     0.000000
The output lambda is                    ....    -0.085052 (6 iterations)
The final length of the internal step   ....  0.300000000
Converting the step to cartesian space:
 Initial RMS(Int)=    0.0228747855
Transforming coordinates:
 Iter   0:  RMS(Cart)=    0.1045740680 RMS(Int)=    0.8292064579
 Iter   1:  RMS(Cart)=    0.0011073428 RMS(Int)=    0.6774904248
[...]
  29   2.0000      -0.490876       -13.3574 
  30   2.0000      -0.472791       -12.8653 
  31   2.0000      -0.456467       -12.4211 
  32   2.0000      -0.452938       -12.3251 
  33   2.0000      -0.445453       -12.1214 
  34   2.0000      -0.426254       -11.5990 
  35   2.0000      -0.416419       -11.3313 
  36   2.0000      -0.403180       -10.9711 
  37   2.0000      -0.393672       -10.7123 
  38   2.0000      -0.376350       -10.2410 
  39   2.0000      -0.368617       -10.0306 
  40   2.0000      -0.363756        -9.8983 
  41   2.0000      -0.358016        -9.7421 
  42   2.0000      -0.355704        -9.6792 
  43   2.0000      -0.332552        -9.0492 
  44   2.0000      -0.316191        -8.6040 
  45   2.0000      -0.314360        -8.5542 
  46   2.0000      -0.304890        -8.2965 
  47   2.0000      -0.272617        -7.4183 
  48   2.0000      -0.263760        -7.1773 
  49   2.0000      -0.254341        -6.9210 
  50   2.0000      -0.248101        -6.7512 
  51   0.0000       0.061956         1.6859 
  52   0.0000       0.065335         1.7778 
  53   0.0000       0.090687         2.4677 
  54   0.0000       0.097964         2.6657 
  55   0.0000       0.103096         2.8054 
  56   0.0000       0.113288         3.0827 
  57   0.0000       0.115395         3.1401 
  58   0.0000       0.129279         3.5179 
  59   0.0000       0.132834         3.6146 
  60   0.0000       0.137284         3.7357 
  61   0.0000       0.146181         3.9778 
  62   0.0000       0.151241         4.1155 
  63   0.0000       0.153914         4.1882 
  64   0.0000       0.165948         4.5157 
  65   0.0000       0.174119         4.7380 
  66   0.0000       0.177923         4.8415 
  67   0.0000       0.180375         4.9082 
  68   0.0000       0.191008         5.1976 
  69   0.0000       0.203354         5.5335 
  70   0.0000       0.214610         5.8398 
  71   0.0000       0.224646         6.1129 
  72   0.0000       0.230855         6.2819 
  73   0.0000       0.238320         6.4850 
  74   0.0000       0.244100         6.6423 
  75   0.0000       0.256465         6.9788 
  76   0.0000       0.263589         7.1726 
  77   0.0000       0.266522         7.2524 
  78   0.0000       0.282128         7.6771 
  79   0.0000       0.299060         8.1378 
  80   0.0000       0.319179         8.6853 
  81   0.0000       0.531750        14.4696 
  82   0.0000       0.543626        14.7928 
  83   0.0000       0.545672        14.8485 
  84   0.0000       0.546892        14.8817 
  85   0.0000       0.556642        15.1470 
  86   0.0000       0.557727        15.1765 
  87   0.0000       0.576029        15.6746 
  88   0.0000       0.581734        15.8298 
  89   0.0000       0.590192        16.0599 
  90   0.0000       0.601826        16.3765 
  91   0.0000       0.608555        16.5596 
  92   0.0000       0.620931        16.8964 
  93   0.0000       0.628134        17.0924 
  94   0.0000       0.633514        17.2388 
  95   0.0000       0.646006        17.5787 
  96   0.0000       0.649158        17.6645 
  97   0.0000       0.675571        18.3832 
  98   0.0000       0.691161        18.8074 
  99   0.0000       0.702297        19.1105 
 100   0.0000       0.746528        20.3141 
 101   0.0000       0.749674        20.3997 
 102   0.0000       0.786636        21.4055 
 103   0.0000       0.812870        22.1193 
 104   0.0000       0.822743        22.3880 
 105   0.0000       0.835547        22.7364 
 106   0.0000       0.846026        23.0215 
 107   0.0000       0.849694        23.1213 
 108   0.0000       0.856031        23.2938 
 109   0.0000       0.862494        23.4696 
 110   0.0000       0.872621        23.7452 
 111   0.0000       0.890912        24.2430 
 112   0.0000       0.895418        24.3656 
 113   0.0000       0.905263        24.6335 
 114   0.0000       0.916782        24.9469 
 115   0.0000       0.927534        25.2395 
 116   0.0000       0.933091        25.3907 
 117   0.0000       0.936081        25.4720 
 118   0.0000       0.955701        26.0059 
 119   0.0000       0.960354        26.1326 
 120   0.0000       0.973364        26.4866 
 121   0.0000       0.979479        26.6530 
 122   0.0000       1.003557        27.3082 
 123   0.0000       1.012208        27.5436 
 124   0.0000       1.044189        28.4138 
 125   0.0000       1.060578        28.8598 
 126   0.0000       1.094310        29.7777 
 127   0.0000       1.114550        30.3284 
 128   0.0000       1.119169        30.4541 
 129   0.0000       1.142860        31.0988 
 130   0.0000       1.192274        32.4434 
 131   0.0000       1.242637        33.8139 
 132   0.0000       1.260577        34.3020 
 133   0.0000       1.300239        35.3813 
 134   0.0000       1.303953        35.4824 
 135   0.0000       1.339825        36.4585 
 136   0.0000       1.368312        37.2337 
 137   0.0000       1.403543        38.1924 
 138   0.0000       1.413770        38.4706 
 139   0.0000       1.459969        39.7278 
 140   0.0000       1.520102        41.3641 
 141   0.0000       1.601821        43.5878 
 142   0.0000       1.623618        44.1809 
 143   0.0000       1.710071        46.5334 
 144   0.0000       1.730238        47.0822 
 145   0.0000       1.877115        51.0789 
 146   0.0000       1.937230        52.7147 
 147   0.0000       2.062881        56.1338 
 148   0.0000       2.128452        57.9181 

                    ********************************
                    * MULLIKEN POPULATION ANALYSIS *
                    ********************************

-----------------------
MULLIKEN ATOMIC CHARGES
-----------------------
   0 C :    0.301257
   1 C :   -0.263999
   2 C :   -0.300555
   3 C :   -0.002977
   4 O :   -0.502113
   5 H :    0.140619
   6 H :    0.146286
   7 H :    0.139183
   8 H :    0.143452
   9 H :    0.161288
  10 H :    0.156991
  11 H :    0.142816
  12 C :   -0.003817
  13 H :    0.121283
  14 H :    0.148824
  15 O :   -0.519411
  16 C :    0.051205
  17 C :    0.090073
  18 C :   -0.298088
  19 C :   -0.032361
  20 O :   -0.527274
  21 H :    0.175509
  22 O :   -0.601476
  23 H :    0.172787
  24 H :    0.163676
  25 H :    0.138256
  26 H :    0.145706
  27 H :    0.149462
  28 H :    0.363396
Sum of atomic charges:   -0.0000000

--------------------------------
MULLIKEN REDUCED ORBITAL CHARGES
--------------------------------
  0 C s       :     3.198924  s :     3.198924
      pz      :     0.796254  p :     2.499819
      px      :     0.693295
      py      :     1.010269
  1 C s       :     3.300865  s :     3.300865
      pz      :     0.984952  p :     2.963134
      px      :     1.032140
      py      :     0.946042
  2 C s       :     3.315737  s :     3.315737
      pz      :     0.904670  p :     2.984818
      px      :     1.086248
      py      :     0.993900
  3 C s       :     3.264188  s :     3.264188
      pz      :     0.934811  p :     2.738790
      px      :     1.066903
      py      :     0.737075
  4 O s       :     3.941964  s :     3.941964
      pz      :     1.277590  p :     4.560149
      px      :     1.764342
      py      :     1.518216
  5 H s       :     0.859381  s :     0.859381
  6 H s       :     0.853714  s :     0.853714
  7 H s       :     0.860817  s :     0.860817
  8 H s       :     0.856548  s :     0.856548
  9 H s       :     0.838712  s :     0.838712
 10 H s       :     0.843009  s :     0.843009
 11 H s       :     0.857184  s :     0.857184
 12 C s       :     3.249717  s :     3.249717
      pz      :     0.785153  p :     2.754100
      px      :     0.892469
      py      :     1.076478
 13 H s       :     0.878717  s :     0.878717
 14 H s       :     0.851176  s :     0.851176
 15 O s       :     3.930414  s :     3.930414
      pz      :     1.477622  p :     4.588997
      px      :     1.275193
      py      :     1.836182
 16 C s       :     3.277527  s :     3.277527
      pz      :     0.810432  p :     2.671267
      px      :     0.881212
      py      :     0.979623
 17 C s       :     3.259571  s :     3.259571
      pz      :     0.933892  p :     2.650356
      px      :     0.778638
      py      :     0.937827
 18 C s       :     3.312800  s :     3.312800
      pz      :     0.924654  p :     2.985287
      px      :     1.060049
      py      :     1.000584
 19 C s       :     3.270302  s :     3.270302
      pz      :     0.953111  p :     2.762059
      px      :     1.076239
      py      :     0.732709
 20 O s       :     3.947083  s :     3.947083
      pz      :     1.359055  p :     4.580191
      px      :     1.724982
      py      :     1.496154
 21 H s       :     0.824491  s :     0.824491
 22 O s       :     3.919666  s :     3.919666
      pz      :     1.701471  p :     4.681810
      px      :     1.258903
      py      :     1.721437
 23 H s       :     0.827213  s :     0.827213
 24 H s       :     0.836324  s :     0.836324
 25 H s       :     0.861744  s :     0.861744
 26 H s       :     0.854294  s :     0.854294
 27 H s       :     0.850538  s :     0.850538
 28 H s       :     0.636604  s :     0.636604


                     *******************************
                     * LOEWDIN POPULATION ANALYSIS *
                     *******************************

----------------------
LOEWDIN ATOMIC CHARGES
----------------------
   0 C :    0.179422
   1 C :   -0.227145
   2 C :   -0.216822
   3 C :   -0.025301
   4 O :   -0.305238
   5 H :    0.098335
   6 H :    0.114461
   7 H :    0.112994
   8 H :    0.115102
   9 H :    0.117747
  10 H :    0.110762
  11 H :    0.103075
  12 C :   -0.039522
  13 H :    0.085967
  14 H :    0.105082
  15 O :   -0.336276
  16 C :    0.018548
  17 C :    0.038400
  18 C :   -0.241731
  19 C :   -0.039067
  20 O :   -0.330516
  21 H :    0.122915
  22 O :   -0.413791
  23 H :    0.125158
  24 H :    0.127286
  25 H :    0.110471
  26 H :    0.103623
  27 H :    0.103991
  28 H :    0.282069

-------------------------------
LOEWDIN REDUCED ORBITAL CHARGES
-------------------------------
  0 C s       :     2.953043  s :     2.953043
      pz      :     0.925355  p :     2.867535
      px      :     0.855119
      py      :     1.087060
  1 C s       :     2.979710  s :     2.979710
      pz      :     1.076094  p :     3.247435
      px      :     1.108983
      py      :     1.062357
  2 C s       :     2.971241  s :     2.971241
      pz      :     1.030339  p :     3.245581
      px      :     1.133311
      py      :     1.081930
  3 C s       :     2.984731  s :     2.984731
      pz      :     1.036058  p :     3.040570
      px      :     1.125707
      py      :     0.878805
  4 O s       :     3.595167  s :     3.595167
      pz      :     1.349063  p :     4.710071
      px      :     1.795564
      py      :     1.565444
  5 H s       :     0.901665  s :     0.901665
  6 H s       :     0.885539  s :     0.885539
  7 H s       :     0.887006  s :     0.887006
  8 H s       :     0.884898  s :     0.884898
  9 H s       :     0.882253  s :     0.882253
 10 H s       :     0.889238  s :     0.889238
 11 H s       :     0.896925  s :     0.896925
 12 C s       :     2.980689  s :     2.980689
      pz      :     0.920942  p :     3.058833
      px      :     1.013127
      py      :     1.124764
 13 H s       :     0.914033  s :     0.914033
 14 H s       :     0.894918  s :     0.894918
 15 O s       :     3.592711  s :     3.592711
      pz      :     1.538792  p :     4.743565
      px      :     1.338098
      py      :     1.866675
 16 C s       :     2.965265  s :     2.965265
      pz      :     0.927270  p :     3.016187
      px      :     1.008752
      py      :     1.080165
 17 C s       :     2.952934  s :     2.952934
      pz      :     1.039736  p :     3.008666
      px      :     0.906598
      py      :     1.062332
 18 C s       :     2.984068  s :     2.984068
      pz      :     1.049445  p :     3.257664
      px      :     1.120189
      py      :     1.088029
 19 C s       :     2.985104  s :     2.985104
      pz      :     1.045349  p :     3.053962
      px      :     1.135279
      py      :     0.873335
 20 O s       :     3.604071  s :     3.604071
      pz      :     1.420850  p :     4.726445
      px      :     1.756336
      py      :     1.549259
 21 H s       :     0.877085  s :     0.877085
 22 O s       :     3.613611  s :     3.613611
      pz      :     1.736327  p :     4.800181
      px      :     1.322205
      py      :     1.741649
 23 H s       :     0.874842  s :     0.874842
 24 H s       :     0.872714  s :     0.872714
 25 H s       :     0.889529  s :     0.889529
 26 H s       :     0.896377  s :     0.896377
 27 H s       :     0.896009  s :     0.896009
 28 H s       :     0.717931  s :     0.717931


                      *****************************
                      * MAYER POPULATION ANALYSIS *
                      *****************************

  NA   - Mulliken gross atomic population
  ZA   - Total nuclear charge
  QA   - Mulliken gross atomic charge
  VA   - Mayer's total valence
  BVA  - Mayer's bonded valence
  FA   - Mayer's free valence

  ATOM       NA         ZA         QA         VA         BVA        FA
  0 C      5.6987     6.0000     0.3013     3.6663     3.6663     0.0000
  1 C      6.2640     6.0000    -0.2640     3.7222     3.7222     0.0000
  2 C      6.3006     6.0000    -0.3006     3.7645     3.7645    -0.0000
  3 C      6.0030     6.0000    -0.0030     3.6578     3.6578     0.0000
  4 O      8.5021     8.0000    -0.5021     1.8016     1.8016     0.0000
  5 H      0.8594     1.0000     0.1406     0.9361     0.9361     0.0000
  6 H      0.8537     1.0000     0.1463     0.9321     0.9321    -0.0000
  7 H      0.8608     1.0000     0.1392     0.9414     0.9414    -0.0000
  8 H      0.8565     1.0000     0.1435     0.9369     0.9369     0.0000
  9 H      0.8387     1.0000     0.1613     0.9350     0.9350    -0.0000
 10 H      0.8430     1.0000     0.1570     0.9250     0.9250     0.0000
 11 H      0.8572     1.0000     0.1428     0.9290     0.9290    -0.0000
 12 C      6.0038     6.0000    -0.0038     3.6198     3.6198    -0.0000
 13 H      0.8787     1.0000     0.1213     0.9316     0.9316     0.0000
 14 H      0.8512     1.0000     0.1488     0.9288     0.9288     0.0000
 15 O      8.5194     8.0000    -0.5194     1.7222     1.7222     0.0000
 16 C      5.9488     6.0000     0.0512     3.6011     3.6011    -0.0000
 17 C      5.9099     6.0000     0.0901     3.6362     3.6362     0.0000
 18 C      6.2981     6.0000    -0.2981     3.6983     3.6983     0.0000
 19 C      6.0324     6.0000    -0.0324     3.6652     3.6652     0.0000
 20 O      8.5273     8.0000    -0.5273     1.7603     1.7603    -0.0000
 21 H      0.8245     1.0000     0.1755     0.9321     0.9321    -0.0000
 22 O      8.6015     8.0000    -0.6015     1.7485     1.7485    -0.0000
 23 H      0.8272     1.0000     0.1728     0.9410     0.9410     0.0000
 24 H      0.8363     1.0000     0.1637     0.9394     0.9394    -0.0000
 25 H      0.8617     1.0000     0.1383     0.9366     0.9366     0.0000
 26 H      0.8543     1.0000     0.1457     0.9276     0.9276    -0.0000
 27 H      0.8505     1.0000     0.1495     0.9282     0.9282    -0.0000
 28 H      0.6366     1.0000     0.3634     0.8330     0.8330    -0.0000

  Mayer bond orders larger than 0.100000
B(  0-C ,  1-C ) :   0.9339 B(  0-C ,  4-O ) :   0.9381 B(  0-C ,  5-H ) :   0.9195 
B(  0-C , 15-O ) :   0.8245 B(  1-C ,  2-C ) :   0.9539 B(  1-C ,  6-H ) :   0.9342 
B(  1-C ,  7-H ) :   0.9376 B(  2-C ,  3-C ) :   0.9550 B(  2-C ,  8-H ) :   0.9449 
B(  2-C ,  9-H ) :   0.9434 B(  3-C ,  4-O ) :   0.8355 B(  3-C , 10-H ) :   0.9340 
B(  3-C , 11-H ) :   0.9396 B( 12-C , 13-H ) :   0.9148 B( 12-C , 14-H ) :   0.9140 
B( 12-C , 15-O ) :   0.8309 B( 12-C , 16-C ) :   0.9085 B( 16-C , 17-C ) :   0.9133 
B( 16-C , 20-O ) :   0.8425 B( 16-C , 21-H ) :   0.9227 B( 17-C , 18-C ) :   0.9117 
B( 17-C , 22-O ) :   0.8935 B( 17-C , 23-H ) :   0.9238 B( 18-C , 19-C ) :   0.9426 
B( 18-C , 24-H ) :   0.9374 B( 18-C , 25-H ) :   0.9356 B( 19-C , 20-O ) :   0.8438 
B( 19-C , 26-H ) :   0.9355 B( 19-C , 27-H ) :   0.9375 B( 22-O , 28-H ) :   0.7950 


-------
TIMINGS
-------

Total SCF time: 0 days 0 hours 2 min 32 sec 

Total time                  ....     152.715 sec
Sum of individual times     ....     122.153 sec  ( 80.0%)

Fock matrix formation       ....     112.195 sec  ( 73.5%)
  XC integration            ....      37.691 sec  ( 33.6% of F)
    Basis function eval.    ....       1.907 sec  (  5.1% of XC)
    Density eval.           ....       1.077 sec  (  2.9% of XC)
    XC-Functional eval.     ....       0.762 sec  (  2.0% of XC)
    XC-Potential eval.      ....       0.738 sec  (  2.0% of XC)
Diagonalization             ....       0.361 sec  (  0.2%)
Density matrix formation    ....       0.006 sec  (  0.0%)
Population analysis         ....       0.542 sec  (  0.4%)
Initial guess               ....       0.011 sec  (  0.0%)
Orbital Transformation      ....       0.000 sec  (  0.0%)
Orbital Orthonormalization  ....       0.005 sec  (  0.0%)
DIIS solution               ....       0.001 sec  (  0.0%)
SOSCF solution              ....       1.311 sec  (  0.9%)
Grid generation             ....       7.726 sec  (  5.1%)

-------------------------   --------------------
FINAL SINGLE POINT ENERGY      -652.863325132955
-------------------------   --------------------

                                *** OPTIMIZATION RUN DONE ***

                            ***************************************
                            *     ORCA property calculations      *
                            ***************************************

                                    ---------------------
                                    Active property flags
                                    ---------------------
   (+) Dipole Moment


------------------------------------------------------------------------------
                       ORCA ELECTRIC PROPERTIES CALCULATION
------------------------------------------------------------------------------

Dipole Moment Calculation                       ... on
Quadrupole Moment Calculation                   ... off
Polarizability Calculation                      ... off
GBWName                                         ... project_8050/ensemble_210_180.gbw
Electron density file                           ... project_8050/ensemble_210_180.scfp
The origin for moment calculation is the CENTER OF MASS  = (-43.903908, 51.019053 86.507376)

-------------
DIPOLE MOMENT
-------------
                                X             Y             Z
Electronic contribution:     -3.41406      -4.85064       1.87682
Nuclear contribution   :      4.16531       5.78733      -2.89308
                        -----------------------------------------
Total Dipole Moment    :      0.75125       0.93669      -1.01626
                        -----------------------------------------
Magnitude (a.u.)       :      1.57307
Magnitude (Debye)      :      3.99843



--------------------
Rotational spectrum 
--------------------
 
Rotational constants in cm-1:     0.054889     0.012483     0.012049 
Rotational constants in MHz :  1645.518343   374.217256   361.224963 

 Dipole components along the rotational axes: 
x,y,z [a.u.] :    -0.145693     0.154667    -1.558655 
x,y,z [Debye]:    -0.370323     0.393132    -3.961786 

 

Timings for individual modules:

Sum of individual times         ...     1963.376 sec (=  32.723 min)
GTO integral calculation        ...       34.211 sec (=   0.570 min)   1.7 %
SCF iterations                  ...     1717.147 sec (=  28.619 min)  87.5 %
SCF Gradient evaluation         ...      184.219 sec (=   3.070 min)   9.4 %
Geometry relaxation             ...       27.800 sec (=   0.463 min)   1.4 %
                             ****ORCA TERMINATED NORMALLY****
TOTAL RUN TIME: 0 days 0 hours 35 minutes 4 seconds 815 msec
