
                                 *****************
                                 * O   R   C   A *
                                 *****************

           --- An Ab Initio, DFT and Semiempirical electronic structure package ---

                  #######################################################
                  #                        -***-                        #
                  #          Department of theory and spectroscopy      #
                  #               Directorship: Frank Neese             #
                  #        Max Planck Institute fuer Kohlenforschung    #
                  #                Kaiser Wilhelm Platz 1               #
                  #                 D-45470 Muelheim/Ruhr               #
                  #                      Germany                        #
                  #                                                     #
                  #                  All rights reserved                #
                  #                        -***-                        #
                  #######################################################


                         Program Version 4.2.0 -  RELEASE  -


 With contributions from (in alphabetic order):
   Daniel Aravena         : Magnetic Suceptibility
   Michael Atanasov       : Ab Initio Ligand Field Theory (pilot matlab implementation)
   Alexander A. Auer      : GIAO ZORA, VPT2
   Ute Becker             : Parallelization
   Giovanni Bistoni       : ED, misc. LED, open-shell LED, HFLED
   Martin Brehm           : Molecular dynamics
   Dmytro Bykov           : SCF Hessian
   Vijay G. Chilkuri      : MRCI spin determinant printing, contributions to CSF-ICE
   Dipayan Datta          : RHF DLPNO-CCSD density
   Achintya Kumar Dutta   : EOM-CC, STEOM-CC
   Dmitry Ganyushin       : Spin-Orbit,Spin-Spin,Magnetic field MRCI
   Miquel Garcia          : C-PCM Hessian, Gaussian charge scheme
   Yang Guo               : DLPNO-NEVPT2, CIM, IAO-localization
   Andreas Hansen         : Spin unrestricted coupled pair/coupled cluster methods
   Benjamin Helmich-Paris : CASSCF linear response (MC-RPA)
   Lee Huntington         : MR-EOM, pCC
   Robert Izsak           : Overlap fitted RIJCOSX, COSX-SCS-MP3, EOM
   Christian Kollmar      : KDIIS, OOCD, Brueckner-CCSD(T), CCSD density
   Simone Kossmann        : Meta GGA functionals, TD-DFT gradient, OOMP2, MP2 Hessian
   Martin Krupicka        : AUTO-CI
   Lucas Lang             : DCDCAS
   Dagmar Lenk            : GEPOL surface, SMD
   Dimitrios Liakos       : Extrapolation schemes; Compound Job, initial MDCI parallelization
   Dimitrios Manganas     : Further ROCIS development; embedding schemes
   Dimitrios Pantazis     : SARC Basis sets
   Taras Petrenko         : DFT Hessian,TD-DFT gradient, ASA, ECA, R-Raman, ABS, FL, XAS/XES, NRVS
   Peter Pinski           : DLPNO-MP2, DLPNO-MP2 Gradient
   Christoph Reimann      : Effective Core Potentials
   Marius Retegan         : Local ZFS, SOC
   Christoph Riplinger    : Optimizer, TS searches, QM/MM, DLPNO-CCSD(T), (RO)-DLPNO pert. Triples
   Tobias Risthaus        : Range-separated hybrids, TD-DFT gradient, RPA, STAB
   Michael Roemelt        : Original ROCIS implementation
   Masaaki Saitow         : Open-shell DLPNO-CCSD energy and density
   Barbara Sandhoefer     : DKH picture change effects
   Avijit Sen             : IP-ROCIS
   Kantharuban Sivalingam : CASSCF convergence, NEVPT2, FIC-MRCI
   Bernardo de Souza      : ESD, SOC TD-DFT
   Georgi Stoychev        : AutoAux, RI-MP2 NMR
   Willem Van den Heuvel  : Paramagnetic NMR
   Boris Wezisla          : Elementary symmetry handling
   Frank Wennmohs         : Technical directorship


 We gratefully acknowledge several colleagues who have allowed us to
 interface, adapt or use parts of their codes:
   Stefan Grimme, W. Hujo, H. Kruse,             : VdW corrections, initial TS optimization,
                  C. Bannwarth                     DFT functionals, gCP, sTDA/sTD-DF
   Ed Valeev, F. Pavosevic, A. Kumar             : LibInt (2-el integral package), F12 methods
   Garnet Chan, S. Sharma, J. Yang, R. Olivares  : DMRG
   Ulf Ekstrom                                   : XCFun DFT Library
   Mihaly Kallay                                 : mrcc  (arbitrary order and MRCC methods)
   Andreas Klamt, Michael Diedenhofen            : otool_cosmo (COSMO solvation model)
   Jiri Pittner, Ondrej Demel                    : Mk-CCSD
   Frank Weinhold                                : gennbo (NPA and NBO analysis)
   Christopher J. Cramer and Donald G. Truhlar   : smd solvation model
   Lars Goerigk                                  : TD-DFT with DH, B97 family of functionals
   V. Asgeirsson, H. Jonsson                     : NEB implementation
   FAccTs GmbH                                   : IRC, NEB, NEB-TS, Multilevel, MM, QM/MM, CI optimization
   S Lehtola, MJT Oliveira, MAL Marques          : LibXC Library


 Your calculation uses the libint2 library for the computation of 2-el integrals
 For citations please refer to: http://libint.valeyev.net

 Your ORCA version has been built with support for libXC version: 4.2.3
 For citations please refer to: https://tddft.org/programs/libxc/

 This ORCA versions uses:
   CBLAS   interface :  Fast vector & matrix operations
   LAPACKE interface :  Fast linear algebra routines
   SCALAPACK package :  Parallel linear algebra routines


----- Orbital basis set information -----
Your calculation utilizes the basis: 6-31G
   H-He, Li-Ne : W. J. Hehre, R. Ditchfield and J.A. Pople, J. Chem. Phys. 56, 2257 (1972).
                 Note: He and Ne are unpublished basis sets taken from the Gaussian program.
                 Note: Li and B from J. D. Dill and J. A. Pople, J. Chem. Phys. 62, 2921 (1975).
   Na - Ar     : M. M. Francl, W. J. Pietro, W. J. Hehre, J. S. Binkley, M. S. Gordon, 
                 D. J. DeFrees and J. A. Pople, J. Chem. Phys. 77, 3654 (1982).
   K - Zn      : V. A. Rassolov, J. A. Pople, M. A. Ratner, and T. L. Windus, J. Chem. Phys. 109, 1223 (1998).

================================================================================
                                        WARNINGS
                       Please study these warnings very carefully!
================================================================================


WARNING: Geometry Optimization
  ===> : Switching off AutoStart
         For restart on a previous wavefunction, please use MOREAD

INFO   : the flag for use of LIBINT has been found!

================================================================================
                                       INPUT FILE
================================================================================
NAME = project_8048/ensemble_330_120.inp
|  1> # Test redundant internal optimization
|  2> #
|  3> ! RKS B3LYP  Opt TightSCF SmallPrint
|  4> 
|  5> %basis
|  6>         Basis "6-31G"
|  7> end
|  8> 
|  9> %geom
| 10> Constraints
| 11> { D 4  0  15  12  330.0   C } # D for Dihedral angle
| 12> { D 0  15  12  16  120.0   C } # D for Dihedral angle
| 13> { D 0  4  3  2   C } # D for Dihedral angle
| 14> { D 4  3  2  1   C } # D for Dihedral angle
| 15> { D 3  2  1  0   C } # D for Dihedral angle
| 16> { D 2  1  0  4   C } # D for Dihedral angle
| 17> { D 1  0  4  3   C } # D for Dihedral angle
| 18> { D 16  20  19  18   C } # D for Dihedral angle
| 19> { D 20  19  18  17   C } # D for Dihedral angle
| 20> { D 19  18  17  16   C } # D for Dihedral angle
| 21> { D 18  17  16  20   C } # D for Dihedral angle
| 22> { D 17  16  20  19   C } # D for Dihedral angle
| 23> { D 15  12  16  20   C } # D for Dihedral angle
| 24> end
| 25> end
| 26> 
| 27> 
| 28> #%pal 
| 29> #nprocs 8
| 30> #end
| 31> 
| 32> * xyz 0 1
| 33> C  -21.048   26.222   46.251
| 34> C  -20.361   27.558   45.944
| 35> C  -20.329   28.222   47.341
| 36> C  -20.110   27.022   48.296
| 37> O  -20.473   25.807   47.535
| 38> H  -20.833   25.428   45.533
| 39> H  -19.344   27.382   45.576
| 40> H  -20.898   28.157   45.201
| 41> H  -19.543   28.978   47.434
| 42> H  -21.289   28.710   47.548
| 43> H  -20.733   27.082   49.195
| 44> H  -19.064   26.913   48.597
| 45> C  -23.271   25.476   47.424
| 46> H  -24.005   24.835   46.920
| 47> H  -22.529   24.830   47.912
| 48> O  -22.586   26.394   46.375
| 49> C  -24.004   26.276   48.536
| 50> C  -23.057   27.264   49.227
| 51> C  -23.014   28.425   48.205
| 52> C  -24.452   28.439   47.628
| 53> O  -25.048   27.125   47.952
| 54> H  -24.500   25.578   49.212
| 55> O  -23.673   27.740   50.571
| 56> H  -22.067   26.841   49.431
| 57> H  -22.738   29.382   48.660
| 58> H  -22.284   28.206   47.417
| 59> H  -24.467   28.583   46.543
| 60> H  -25.082   29.202   48.095
| 61> H  -24.665   28.168   50.391
| 62> *
| 63> 
| 64>                          ****END OF INPUT****
================================================================================

                       *****************************
                       * Geometry Optimization Run *
                       *****************************

Geometry optimization settings:
Update method            Update   .... BFGS
Choice of coordinates    CoordSys .... Z-matrix Internals
Initial Hessian          InHess   .... Almoef's Model

Convergence Tolerances:
Energy Change            TolE     ....  5.0000e-06 Eh
Max. Gradient            TolMAXG  ....  3.0000e-04 Eh/bohr
RMS Gradient             TolRMSG  ....  1.0000e-04 Eh/bohr
Max. Displacement        TolMAXD  ....  4.0000e-03 bohr
RMS Displacement         TolRMSD  ....  2.0000e-03 bohr
Strict Convergence                ....  False
------------------------------------------------------------------------------
                        ORCA OPTIMIZATION COORDINATE SETUP
------------------------------------------------------------------------------

The optimization will be done in new redundant internal coordinates
Making redundant internal coordinates   ...  (new redundants) done
Evaluating the initial hessian          ...  (Almloef) done
Evaluating the coordinates              ...  done
Calculating the B-matrix                .... done
Calculating the G-matrix                .... done
Diagonalizing the G-matrix              .... done
Imposing constraints:
 Iter   0:  RMS(Cart)=    0.0002239009 RMS(Int)=    0.0000646845
 Iter   1:  RMS(Cart)=    0.0001106056 RMS(Int)=    0.0000350914
 Iter   2:  RMS(Cart)=    0.0000573539 RMS(Int)=    0.0000209486
 Iter   3:  RMS(Cart)=    0.0000316071 RMS(Int)=    0.0000136536
 Iter   4:  RMS(Cart)=    0.0000185917 RMS(Int)=    0.0000095432
 Iter   5:  RMS(Cart)=    0.0000115913 RMS(Int)=    0.0000070770
 Iter   6:  RMS(Cart)=    0.0000075516 RMS(Int)=    0.0000055611
 Iter   7:  RMS(Cart)=    0.0000050665 RMS(Int)=    0.0000046307
 Iter   8:  RMS(Cart)=    0.0000034636 RMS(Int)=    0.0000040618
 Iter   9:  RMS(Cart)=    0.0000023992 RMS(Int)=    0.0000037081
 Iter  10:  RMS(Cart)=    0.0000016837 RMS(Int)=    0.0000034770
 Iter  11:  RMS(Cart)=    0.0000012042 RMS(Int)=    0.0000033134
 Iter  12:  RMS(Cart)=    0.0000008895 RMS(Int)=    0.0000031867
 Iter  13:  RMS(Cart)=    0.0000006909 RMS(Int)=    0.0000030804
 Iter  14:  RMS(Cart)=    0.0000005725 RMS(Int)=    0.0000029859
 Iter  15:  RMS(Cart)=    0.0000005054 RMS(Int)=    0.0000028986
 Iter  16:  RMS(Cart)=    0.0000004680 RMS(Int)=    0.0000028163
 Iter  17:  RMS(Cart)=    0.0000004462 RMS(Int)=    0.0000027376
 Iter  18:  RMS(Cart)=    0.0000004317 RMS(Int)=    0.0000026619
 Iter  19:  RMS(Cart)=    0.0000004204 RMS(Int)=    0.0000025888
 Iter  20:  RMS(Cart)=    0.0000004102 RMS(Int)=    0.0000025181
 Iter  21:  RMS(Cart)=    0.0000004005 RMS(Int)=    0.0000024497
 Iter  22:  RMS(Cart)=    0.0000003909 RMS(Int)=    0.0000023834
 Iter  23:  RMS(Cart)=    0.0000003812 RMS(Int)=    0.0000023191
 Iter  24:  RMS(Cart)=    0.0000003716 RMS(Int)=    0.0000022569
 Iter  25:  RMS(Cart)=    0.0000003621 RMS(Int)=    0.0000021965
 Iter  26:  RMS(Cart)=    0.0000003527 RMS(Int)=    0.0000021379
 Iter  27:  RMS(Cart)=    0.0000003434 RMS(Int)=    0.0000020811
 Iter  28:  RMS(Cart)=    0.0000003344 RMS(Int)=    0.0000020261
 Iter  29:  RMS(Cart)=    0.0000003255 RMS(Int)=    0.0000019726
 Iter  30:  RMS(Cart)=    0.0000003169 RMS(Int)=    0.0000019208
 Iter  31:  RMS(Cart)=    0.0000003084 RMS(Int)=    0.0000018706
 Iter  32:  RMS(Cart)=    0.0000003002 RMS(Int)=    0.0000018218
 Iter  33:  RMS(Cart)=    0.0000002922 RMS(Int)=    0.0000017745
 Iter  34:  RMS(Cart)=    0.0000002845 RMS(Int)=    0.0000017286
 Iter  35:  RMS(Cart)=    0.0000002769 RMS(Int)=    0.0000016840
 Iter  36:  RMS(Cart)=    0.0000002696 RMS(Int)=    0.0000016408
 Iter  37:  RMS(Cart)=    0.0000002625 RMS(Int)=    0.0000015988
 Iter  38:  RMS(Cart)=    0.0000002556 RMS(Int)=    0.0000015581
 Iter  39:  RMS(Cart)=    0.0000002488 RMS(Int)=    0.0000015186
 Iter  40:  RMS(Cart)=    0.0000002423 RMS(Int)=    0.0000014802
 Iter  41:  RMS(Cart)=    0.0000002360 RMS(Int)=    0.0000014429
 Iter  42:  RMS(Cart)=    0.0000002298 RMS(Int)=    0.0000014067
 Iter  43:  RMS(Cart)=    0.0000002238 RMS(Int)=    0.0000013716
 Iter  44:  RMS(Cart)=    0.0000002180 RMS(Int)=    0.0000013374
 Iter  45:  RMS(Cart)=    0.0000002124 RMS(Int)=    0.0000013043
 Iter  46:  RMS(Cart)=    0.0000002069 RMS(Int)=    0.0000012721
 Iter  47:  RMS(Cart)=    0.0000002016 RMS(Int)=    0.0000012408
 Iter  48:  RMS(Cart)=    0.0000001964 RMS(Int)=    0.0000012105
 Iter  49:  RMS(Cart)=    0.0000001913 RMS(Int)=    0.0000011810
 Iter  50:  RMS(Cart)=    0.0000001864 RMS(Int)=    0.0000011523
 Iter  51:  RMS(Cart)=    0.0000001817 RMS(Int)=    0.0000011244
 Iter  52:  RMS(Cart)=    0.0000001771 RMS(Int)=    0.0000010974
 Iter  53:  RMS(Cart)=    0.0000001726 RMS(Int)=    0.0000010711
 Iter  54:  RMS(Cart)=    0.0000001682 RMS(Int)=    0.0000010455
 Iter  55:  RMS(Cart)=    0.0000001640 RMS(Int)=    0.0000010206
 Iter  56:  RMS(Cart)=    0.0000001598 RMS(Int)=    0.0000009965
 Iter  57:  RMS(Cart)=    0.0000001558 RMS(Int)=    0.0000009730
 Iter  58:  RMS(Cart)=    0.0000001519 RMS(Int)=    0.0000009502
 Iter  59:  RMS(Cart)=    0.0000001481 RMS(Int)=    0.0000009280
 Iter  60:  RMS(Cart)=    0.0000001444 RMS(Int)=    0.0000009064
 Iter  61:  RMS(Cart)=    0.0000001408 RMS(Int)=    0.0000008854
 Iter  62:  RMS(Cart)=    0.0000001373 RMS(Int)=    0.0000008650
 Iter  63:  RMS(Cart)=    0.0000001339 RMS(Int)=    0.0000008452
 Iter  64:  RMS(Cart)=    0.0000001306 RMS(Int)=    0.0000008258
 Iter  65:  RMS(Cart)=    0.0000001274 RMS(Int)=    0.0000008071
 Iter  66:  RMS(Cart)=    0.0000001243 RMS(Int)=    0.0000007888
 Iter  67:  RMS(Cart)=    0.0000001212 RMS(Int)=    0.0000007710
 Iter  68:  RMS(Cart)=    0.0000001183 RMS(Int)=    0.0000007537
 Iter  69:  RMS(Cart)=    0.0000001154 RMS(Int)=    0.0000007369
 Iter  70:  RMS(Cart)=    0.0000001126 RMS(Int)=    0.0000007205
 Iter  71:  RMS(Cart)=    0.0000001098 RMS(Int)=    0.0000007046
 Iter  72:  RMS(Cart)=    0.0000001072 RMS(Int)=    0.0000006891
 Iter  73:  RMS(Cart)=    0.0000001046 RMS(Int)=    0.0000006740
 Iter  74:  RMS(Cart)=    0.0000001021 RMS(Int)=    0.0000006593
 Iter  75:  RMS(Cart)=    0.0000000996 RMS(Int)=    0.0000006450
 Iter  76:  RMS(Cart)=    0.0000000972 RMS(Int)=    0.0000006311
 Iter  77:  RMS(Cart)=    0.0000000949 RMS(Int)=    0.0000006175
 Iter  78:  RMS(Cart)=    0.0000000927 RMS(Int)=    0.0000006043
 Iter  79:  RMS(Cart)=    0.0000000905 RMS(Int)=    0.0000005915
 Iter  80:  RMS(Cart)=    0.0000000883 RMS(Int)=    0.0000005789
 Iter  81:  RMS(Cart)=    0.0000000862 RMS(Int)=    0.0000005667
 Iter  82:  RMS(Cart)=    0.0000000842 RMS(Int)=    0.0000005549
 Iter  83:  RMS(Cart)=    0.0000000822 RMS(Int)=    0.0000005433
 Iter  84:  RMS(Cart)=    0.0000000803 RMS(Int)=    0.0000005320
 Iter  85:  RMS(Cart)=    0.0000000784 RMS(Int)=    0.0000005210
 Iter  86:  RMS(Cart)=    0.0000000766 RMS(Int)=    0.0000005103
 Iter  87:  RMS(Cart)=    0.0000000748 RMS(Int)=    0.0000004999
 Iter  88:  RMS(Cart)=    0.0000000730 RMS(Int)=    0.0000004897
 Iter  89:  RMS(Cart)=    0.0000000714 RMS(Int)=    0.0000004798
 Iter  90:  RMS(Cart)=    0.0000000697 RMS(Int)=    0.0000004702
 Iter  91:  RMS(Cart)=    0.0000000681 RMS(Int)=    0.0000004608
 Iter  92:  RMS(Cart)=    0.0000000665 RMS(Int)=    0.0000004516
 Iter  93:  RMS(Cart)=    0.0000000650 RMS(Int)=    0.0000004426
 Iter  94:  RMS(Cart)=    0.0000000635 RMS(Int)=    0.0000004339
 Iter  95:  RMS(Cart)=    0.0000000621 RMS(Int)=    0.0000004254
 Iter  96:  RMS(Cart)=    0.0000000607 RMS(Int)=    0.0000004171
 Iter  97:  RMS(Cart)=    0.0000000593 RMS(Int)=    0.0000004090
 Iter  98:  RMS(Cart)=    0.0000000579 RMS(Int)=    0.0000004011
 Iter  99:  RMS(Cart)=    0.0000000566 RMS(Int)=    0.0000003934
 RMS(Cart) too big - taking linear step, building new B-matrix and trying again
Imposing constraints:
 Iter   0:  RMS(Cart)=    0.0001105996 RMS(Int)=    0.0000350920
 Iter   1:  RMS(Cart)=    0.0000573503 RMS(Int)=    0.0000209494
 Iter   2:  RMS(Cart)=    0.0000316051 RMS(Int)=    0.0000136542
 Iter   3:  RMS(Cart)=    0.0000185906 RMS(Int)=    0.0000095436
 Iter   4:  RMS(Cart)=    0.0000115908 RMS(Int)=    0.0000070771
 Iter   5:  RMS(Cart)=    0.0000075513 RMS(Int)=    0.0000055610
 Iter   6:  RMS(Cart)=    0.0000050664 RMS(Int)=    0.0000046304
 Iter   7:  RMS(Cart)=    0.0000034635 RMS(Int)=    0.0000040614
 Iter   8:  RMS(Cart)=    0.0000023992 RMS(Int)=    0.0000037076
 Iter   9:  RMS(Cart)=    0.0000016836 RMS(Int)=    0.0000034765
 Iter  10:  RMS(Cart)=    0.0000012042 RMS(Int)=    0.0000033129
 Iter  11:  RMS(Cart)=    0.0000008894 RMS(Int)=    0.0000031862
 Iter  12:  RMS(Cart)=    0.0000006909 RMS(Int)=    0.0000030800
 Iter  13:  RMS(Cart)=    0.0000005723 RMS(Int)=    0.0000029855
 Iter  14:  RMS(Cart)=    0.0000005052 RMS(Int)=    0.0000028982
 Iter  15:  RMS(Cart)=    0.0000004679 RMS(Int)=    0.0000028159
 Iter  16:  RMS(Cart)=    0.0000004461 RMS(Int)=    0.0000027372
 Iter  17:  RMS(Cart)=    0.0000004316 RMS(Int)=    0.0000026615
 Iter  18:  RMS(Cart)=    0.0000004203 RMS(Int)=    0.0000025885
 Iter  19:  RMS(Cart)=    0.0000004101 RMS(Int)=    0.0000025178
 Iter  20:  RMS(Cart)=    0.0000004004 RMS(Int)=    0.0000024494
 Iter  21:  RMS(Cart)=    0.0000003908 RMS(Int)=    0.0000023831
 Iter  22:  RMS(Cart)=    0.0000003812 RMS(Int)=    0.0000023189
 Iter  23:  RMS(Cart)=    0.0000003716 RMS(Int)=    0.0000022566
 Iter  24:  RMS(Cart)=    0.0000003620 RMS(Int)=    0.0000021962
 Iter  25:  RMS(Cart)=    0.0000003526 RMS(Int)=    0.0000021377
 Iter  26:  RMS(Cart)=    0.0000003434 RMS(Int)=    0.0000020809
 Iter  27:  RMS(Cart)=    0.0000003343 RMS(Int)=    0.0000020259
 Iter  28:  RMS(Cart)=    0.0000003254 RMS(Int)=    0.0000019725
 Iter  29:  RMS(Cart)=    0.0000003168 RMS(Int)=    0.0000019207
 Iter  30:  RMS(Cart)=    0.0000003084 RMS(Int)=    0.0000018704
 Iter  31:  RMS(Cart)=    0.0000003002 RMS(Int)=    0.0000018217
 Iter  32:  RMS(Cart)=    0.0000002922 RMS(Int)=    0.0000017744
 Iter  33:  RMS(Cart)=    0.0000002844 RMS(Int)=    0.0000017285
 Iter  34:  RMS(Cart)=    0.0000002769 RMS(Int)=    0.0000016839
 Iter  35:  RMS(Cart)=    0.0000002695 RMS(Int)=    0.0000016407
 Iter  36:  RMS(Cart)=    0.0000002624 RMS(Int)=    0.0000015988
 Iter  37:  RMS(Cart)=    0.0000002555 RMS(Int)=    0.0000015580
 Iter  38:  RMS(Cart)=    0.0000002488 RMS(Int)=    0.0000015185
 Iter  39:  RMS(Cart)=    0.0000002423 RMS(Int)=    0.0000014801
 Iter  40:  RMS(Cart)=    0.0000002359 RMS(Int)=    0.0000014429
 Iter  41:  RMS(Cart)=    0.0000002298 RMS(Int)=    0.0000014067
 Iter  42:  RMS(Cart)=    0.0000002238 RMS(Int)=    0.0000013716
 Iter  43:  RMS(Cart)=    0.0000002180 RMS(Int)=    0.0000013374
 Iter  44:  RMS(Cart)=    0.0000002123 RMS(Int)=    0.0000013043
 Iter  45:  RMS(Cart)=    0.0000002069 RMS(Int)=    0.0000012721
 Iter  46:  RMS(Cart)=    0.0000002015 RMS(Int)=    0.0000012409
 Iter  47:  RMS(Cart)=    0.0000001963 RMS(Int)=    0.0000012105
 Iter  48:  RMS(Cart)=    0.0000001913 RMS(Int)=    0.0000011810
 Iter  49:  RMS(Cart)=    0.0000001864 RMS(Int)=    0.0000011523
 Iter  50:  RMS(Cart)=    0.0000001817 RMS(Int)=    0.0000011245
 Iter  51:  RMS(Cart)=    0.0000001770 RMS(Int)=    0.0000010974
 Iter  52:  RMS(Cart)=    0.0000001725 RMS(Int)=    0.0000010711
 Iter  53:  RMS(Cart)=    0.0000001682 RMS(Int)=    0.0000010455
 Iter  54:  RMS(Cart)=    0.0000001639 RMS(Int)=    0.0000010207
 Iter  55:  RMS(Cart)=    0.0000001598 RMS(Int)=    0.0000009965
CONVERGED
Small eigenvalue found = 5.616e-03
Small eigenvalue found = 1.027e-02
Small eigenvalue found = 1.188e-02
The first mode is                       ....   91
The number of degrees of freedom        ....   81
Storing new coordinates                 .... done

    -----------------------------------------------------------------
                    Redundant Internal Coordinates


    -----------------------------------------------------------------
         Definition                    Initial Value    Approx d2E/dq
    -----------------------------------------------------------------
      1. B(C   1,C   0)                  1.5333         0.369027   
      2. B(C   2,C   1)                  1.5471         0.350825   
      3. B(C   3,C   2)                  1.5492         0.348147   
      4. B(O   4,C   0)                  1.4668         0.422031   
      5. B(O   4,C   3)                  1.4789         0.403699   
      6. B(H   5,C   0)                  1.0919         0.357632   
      7. B(H   6,C   1)                  1.0958         0.352561   
      8. B(H   7,C   1)                  1.0951         0.353431   
      9. B(H   8,C   2)                  1.0945         0.354166   
     10. B(H   9,C   2)                  1.0966         0.351438   
     11. B(H  10,C   3)                  1.0954         0.353010   
     12. B(H  11,C   3)                  1.0939         0.354989   
     13. B(H  13,C  12)                  1.0971         0.350815   
     14. B(H  14,C  12)                  1.0982         0.349425   
     15. B(O  15,C   0)                  1.5525         0.307993   
     16. B(O  15,C  12)                  1.5532         0.307285   
     17. B(C  16,C  12)                  1.5537         0.342486   
     18. B(C  17,C  16)                  1.5331         0.369328   
     19. B(C  18,C  17)                  1.5473         0.350523   
     20. B(C  19,C  18)                  1.5495         0.347742   
     21. B(O  20,C  16)                  1.4669         0.421879   
     22. B(O  20,C  19)                  1.4788         0.403863   
     23. B(H  21,C  16)                  1.0910         0.358831   
     24. B(O  22,C  17)                  1.5532         0.307279   
     25. B(H  23,C  17)                  1.0957         0.352587   
     26. B(H  24,C  18)                  1.0950         0.353531   
     27. B(H  25,C  18)                  1.0963         0.351902   
     28. B(H  26,C  19)                  1.0946         0.354044   
     29. B(H  27,C  19)                  1.0941         0.354655   
     30. B(H  28,O  22)                  1.0953         0.316322   
     31. A(O   4,C   0,H   5)          107.0218         0.328541   
     32. A(C   1,C   0,O  15)          111.3017         0.348740   
     33. A(C   1,C   0,O   4)          104.2484         0.367935   
     34. A(O   4,C   0,O  15)          110.4735         0.354548   
     35. A(C   1,C   0,H   5)          114.4374         0.323302   
     36. A(H   5,C   0,O  15)          109.1580         0.312058   
     37. A(C   0,C   1,C   2)          101.6797         0.358729   
     38. A(C   2,C   1,H   7)          112.8318         0.320016   
     39. A(C   2,C   1,H   6)          110.6709         0.319888   
     40. A(C   0,C   1,H   6)          110.0676         0.322546   
     41. A(H   6,C   1,H   7)          108.3681         0.289027   
     42. A(C   0,C   1,H   7)          113.1243         0.322677   
     43. A(C   1,C   2,H   8)          112.8319         0.320125   
     44. A(C   1,C   2,C   3)          103.1266         0.355196   
     45. A(C   1,C   2,H   9)          110.0801         0.319721   
     46. A(C   3,C   2,H   9)          110.6152         0.319321   
     47. A(C   3,C   2,H   8)          112.4039         0.319725   
     48. A(H   8,C   2,H   9)          107.7728         0.288977   
     49. A(O   4,C   3,H  10)          109.1298         0.325449   
     50. A(C   2,C   3,H  10)          112.5253         0.319554   
     51. A(C   2,C   3,O   4)          106.5277         0.361529   
     52. A(O   4,C   3,H  11)          107.1237         0.325748   
     53. A(H  10,C   3,H  11)          108.8728         0.289284   
     54. A(C   2,C   3,H  11)          112.4566         0.319846   
     55. A(C   0,O   4,C   3)          108.3147         0.371320   
     56. A(H  14,C  12,C  16)          107.6854         0.318170   
     57. A(H  13,C  12,H  14)          108.2090         0.288288   
     58. A(H  13,C  12,O  15)          109.2786         0.310972   
     59. A(H  14,C  12,O  15)          110.4734         0.310773   
     60. A(O  15,C  12,C  16)          112.7766         0.344256   
     61. A(H  13,C  12,C  16)          108.2899         0.318376   
     62. A(C   0,O  15,C  12)          115.1736         0.336146   
     63. A(C  12,C  16,C  17)          111.2856         0.357314   
     64. A(C  12,C  16,O  20)          110.4167         0.363240   
     65. A(C  17,C  16,O  20)          104.2460         0.367964   
     66. A(C  12,C  16,H  21)          109.1798         0.319552   
     67. A(C  17,C  16,H  21)          114.4485         0.323523   
     68. A(O  20,C  16,H  21)          107.0614         0.328703   
     69. A(C  16,C  17,C  18)          101.7126         0.358726   
     70. A(C  16,C  17,O  22)          110.0314         0.348652   
     71. A(C  18,C  17,O  22)          110.6467         0.345599   
     72. A(C  16,C  17,H  23)          113.1552         0.322593   
     73. A(C  18,C  17,H  23)          112.8002         0.319847   
     74. A(O  22,C  17,H  23)          108.3933         0.311225   
     75. A(C  17,C  18,C  19)          103.1175         0.355074   
     76. A(C  17,C  18,H  24)          112.8493         0.319986   
     77. A(C  19,C  18,H  24)          112.3799         0.319570   
     78. A(C  17,C  18,H  25)          110.0825         0.319745   
     79. A(C  19,C  18,H  25)          110.6166         0.319329   
     80. A(H  24,C  18,H  25)          107.7840         0.288955   
     81. A(C  18,C  19,O  20)          106.5237         0.361482   
     82. A(C  18,C  19,H  26)          112.5203         0.319646   
     83. A(O  20,C  19,H  26)          109.1806         0.325627   
     84. A(C  18,C  19,H  27)          112.4403         0.319736   
     85. A(O  20,C  19,H  27)          107.1014         0.325719   
     86. A(H  26,C  19,H  27)          108.8710         0.289374   
     87. A(C  16,O  20,C  19)          108.3401         0.371323   
     88. A(C  17,O  22,H  28)          109.6793         0.303305   
     89. D(H   7,C   1,C   0,H   5)     82.1516         0.010890   
     90. D(C   2,C   1,C   0,O  15)     79.0867         0.010890   
     91. D(H   7,C   1,C   0,O  15)    -42.1869         0.010890   
     92. D(H   6,C   1,C   0,O   4)     77.3260         0.010890   
     93. D(H   6,C   1,C   0,O  15)   -163.5727         0.010890   
     94. D(H   6,C   1,C   0,H   5)    -39.2342         0.010890   
     95. D(H   7,C   1,C   0,O   4)   -161.2881         0.010890   
     96. D(C   2,C   1,C   0,O   4)    -40.0145         0.010890 C 
     97. D(C   2,C   1,C   0,H   5)   -156.5748         0.010890   
     98. D(H   9,C   2,C   1,H   6)    160.0776         0.009912   
     99. D(H   8,C   2,C   1,C   0)    156.5478         0.009912   
    100. D(H   8,C   2,C   1,H   6)     39.6446         0.009912   
    101. D(C   3,C   2,C   1,C   0)     35.0270         0.009912 C 
    102. D(H   8,C   2,C   1,H   7)    -81.9752         0.009912   
    103. D(H   9,C   2,C   1,C   0)    -83.0191         0.009912   
    104. D(C   3,C   2,C   1,H   6)    -81.8763         0.009912   
    105. D(H   9,C   2,C   1,H   7)     38.4578         0.009912   
    106. D(C   3,C   2,C   1,H   7)    156.5039         0.009912   
    107. D(H  11,C   3,C   2,H   9)   -143.4628         0.009774   
    108. D(O   4,C   3,C   2,H   8)   -140.0066         0.009774   
    109. D(O   4,C   3,C   2,H   9)     99.4739         0.009774   
    110. D(H  10,C   3,C   2,C   1)   -137.7433         0.009774   
    111. D(H  10,C   3,C   2,H   8)    100.4468         0.009774   
    112. D(H  10,C   3,C   2,H   9)    -20.0727         0.009774   
    113. D(H  11,C   3,C   2,C   1)     98.8667         0.009774   
    114. D(O   4,C   3,C   2,C   1)    -18.1967         0.009774 C 
    115. D(H  11,C   3,C   2,H   8)    -22.9433         0.009774   
    116. D(C   3,O   4,C   0,C   1)     29.5918         0.014035 C 
    117. D(C   3,O   4,C   0,H   5)    151.2013         0.014035   
    118. D(C   3,O   4,C   0,O  15)    -90.0707         0.014035   
    119. D(C   0,O   4,C   3,C   2)     -6.8732         0.012866 C 
    120. D(C   0,O   4,C   3,H  10)    114.8547         0.012866   
    121. D(C   0,O   4,C   3,H  11)   -127.4272         0.012866   
    122. D(C   0,O  15,C  12,C  16)    120.0000         0.007762 C 
    123. D(C  12,O  15,C   0,O   4)    -30.0000         0.007793 C 
    124. D(C  12,O  15,C   0,H   5)     87.4197         0.007793   
    125. D(C   0,O  15,C  12,H  14)     -0.5614         0.007762   
    126. D(C   0,O  15,C  12,H  13)   -119.5058         0.007762   
    127. D(C  12,O  15,C   0,C   1)   -145.3132         0.007793   
    128. D(C  17,C  16,C  12,H  13)   -176.3314         0.009485   
    129. D(H  21,C  16,C  12,H  14)    -60.4144         0.009485   
    130. D(C  17,C  16,C  12,O  15)    -55.2725         0.009485   
    131. D(O  20,C  16,C  12,H  13)    -61.0653         0.009485   
    132. D(O  20,C  16,C  12,H  14)   -177.8621         0.009485   
    133. D(O  20,C  16,C  12,O  15)     59.9936         0.009485 C 
    134. D(C  17,C  16,C  12,H  14)     66.8718         0.009485   
    135. D(H  21,C  16,C  12,H  13)     56.3824         0.009485   
    136. D(H  21,C  16,C  12,O  15)    177.4412         0.009485   
    137. D(C  18,C  17,C  16,C  12)     79.0585         0.010907   
    138. D(C  18,C  17,C  16,O  20)    -39.9656         0.010907 C 
    139. D(C  18,C  17,C  16,H  21)   -156.5780         0.010907   
    140. D(O  22,C  17,C  16,C  12)   -163.6268         0.010907   
    141. D(O  22,C  17,C  16,O  20)     77.3491         0.010907   
    142. D(O  22,C  17,C  16,H  21)    -39.2633         0.010907   
    143. D(H  23,C  17,C  16,C  12)    -42.2133         0.010907   
    144. D(H  23,C  17,C  16,O  20)   -161.2375         0.010907   
    145. D(H  23,C  17,C  16,H  21)     82.1501         0.010907   
    146. D(H  24,C  18,C  17,H  23)    -82.0035         0.009897   
    147. D(C  19,C  18,C  17,O  22)    -81.8861         0.009897   
    148. D(C  19,C  18,C  17,H  23)    156.5012         0.009897   
    149. D(H  24,C  18,C  17,C  16)    156.4780         0.009897   
    150. D(C  19,C  18,C  17,C  16)     34.9827         0.009897 C 
    151. D(H  24,C  18,C  17,O  22)     39.6092         0.009897   
    152. D(H  25,C  18,C  17,C  16)    -83.0613         0.009897   
    153. D(H  25,C  18,C  17,O  22)    160.0699         0.009897   
    154. D(H  25,C  18,C  17,H  23)     38.4573         0.009897   
    155. D(H  27,C  19,C  18,H  25)   -143.4674         0.009753   
    156. D(O  20,C  19,C  18,H  24)   -139.9741         0.009753   
    157. D(O  20,C  19,C  18,H  25)     99.5075         0.009753   
    158. D(H  26,C  19,C  18,C  17)   -137.7652         0.009753   
    159. D(H  26,C  19,C  18,H  24)    100.4223         0.009753   
    160. D(H  26,C  19,C  18,H  25)    -20.0961         0.009753   
    161. D(H  27,C  19,C  18,C  17)     98.8635         0.009753   
    162. D(O  20,C  19,C  18,C  17)    -18.1616         0.009753 C 
    163. D(H  27,C  19,C  18,H  24)    -22.9490         0.009753   
    164. D(C  19,O  20,C  16,C  12)    -90.0531         0.014025   
    165. D(C  19,O  20,C  16,C  17)     29.5604         0.014025 C 
    166. D(C  19,O  20,C  16,H  21)    151.2007         0.014025   
    167. D(C  16,O  20,C  19,C  18)     -6.8717         0.012876 C 
    168. D(C  16,O  20,C  19,H  26)    114.8766         0.012876   
    169. D(C  16,O  20,C  19,H  27)   -127.3929         0.012876   
    170. D(H  28,O  22,C  17,C  16)    -55.8148         0.007762   
    171. D(H  28,O  22,C  17,C  18)     55.7951         0.007762   
    172. D(H  28,O  22,C  17,H  23)    179.9693         0.007762   
    -----------------------------------------------------------------

Number of atoms                         .... 29
Number of degrees of freedom            .... 172

         *************************************************************
         *                GEOMETRY OPTIMIZATION CYCLE   1            *
         *************************************************************
---------------------------------
CARTESIAN COORDINATES (ANGSTROEM)
---------------------------------
  C    -21.047935   26.221990   46.250927
  C    -20.360836   27.557939   45.943888
  C    -20.328530   28.221874   47.340917
  C    -20.109501   27.021794   48.295808
  O    -20.472760   25.806881   47.534809
  H    -20.833140   25.428028   45.532824
  H    -19.343919   27.381844   45.575704
  H    -20.897897   28.157039   45.201013
  H    -19.542432   28.977784   47.433825
  H    -21.288441   28.709970   47.548105
  H    -20.732343   27.081811   49.194917
  H    -19.063462   26.912663   48.596624
  C    -23.270866   25.476124   47.424144
  H    -24.004881   24.835136   46.920151
  H    -22.528819   24.830112   47.912057
  O    -22.585890   26.394203   46.375198
  C    -24.004098   26.276034   48.536055
  C    -23.057329   27.264166   49.227173
  C    -23.014382   28.425170   48.205179
  C    -24.452314   28.438964   47.628000
  O    -25.048162   27.124871   47.951927
  H    -24.500090   25.577961   49.211985
  O    -23.673562   27.740077   50.571097
  H    -22.067293   26.841311   49.431295
  H    -22.738579   29.382210   48.660214
  H    -22.284255   28.206278   47.417268
  H    -24.467200   28.582963   46.542999
  H    -25.082483   29.201871   48.094923
  H    -24.665603   28.167932   50.390976

----------------------------
CARTESIAN COORDINATES (A.U.)
----------------------------
  NO LB      ZA    FRAG     MASS         X           Y           Z
   0 C     6.0000    0    12.011  -39.774833   49.552380   87.401586
   1 C     6.0000    0    12.011  -38.476404   52.076957   86.821365
   2 C     6.0000    0    12.011  -38.415354   53.331613   89.461369
   3 C     6.0000    0    12.011  -38.001450   51.063791   91.265851
   4 O     8.0000    0    15.999  -38.687909   48.767937   89.827770
   5 H     1.0000    0     1.008  -39.368929   48.052009   86.044568
   6 H     1.0000    0     1.008  -36.554709   51.744186   86.125599
   7 H     1.0000    0     1.008  -39.491303   53.209093   85.417536
   8 H     1.0000    0     1.008  -36.929845   54.760076   89.636939
   9 H     1.0000    0     1.008  -40.229323   54.253980   89.852896
  10 H     1.0000    0     1.008  -39.178450   51.177205   92.964920
  11 H     1.0000    0     1.008  -36.024723   50.857562   91.834311
  12 C     6.0000    0    12.011  -43.975563   48.142896   89.618644
  13 H     1.0000    0     1.008  -45.362651   46.931605   88.666235
  14 H     1.0000    0     1.008  -42.573297   46.922112   90.540667
  15 O     8.0000    0    15.999  -42.681146   49.877815   87.636423
  16 C     6.0000    0    12.011  -45.361171   49.654508   91.719852
  17 C     6.0000    0    12.011  -43.572037   51.521807   93.025875
  18 C     6.0000    0    12.011  -43.490880   53.715787   91.094587
  19 C     6.0000    0    12.011  -46.208176   53.741853   90.003877
  20 O     8.0000    0    15.999  -47.334165   51.258578   90.616009
  21 H     1.0000    0     1.008  -46.298461   48.335340   92.997173
  22 O     8.0000    0    15.999  -44.736549   52.421149   95.565524
  23 H     1.0000    0     1.008  -41.701140   50.722726   93.411610
  24 H     1.0000    0     1.008  -42.969688   55.524330   91.954479
  25 H     1.0000    0     1.008  -42.111138   53.302140   89.605650
  26 H     1.0000    0     1.008  -46.236307   54.013973   87.953521
  27 H     1.0000    0     1.008  -47.399024   55.183539   90.886232
  28 H     1.0000    0     1.008  -46.611234   53.229678   95.225145

--------------------------------
INTERNAL COORDINATES (ANGSTROEM)
--------------------------------
 C      0   0   0     0.000000000000     0.00000000     0.00000000
 C      1   0   0     1.533334275362     0.00000000     0.00000000
 C      2   1   0     1.547103422529   101.67907390     0.00000000
 C      3   2   1     1.549188819996   103.12737509    35.02687180
 O      1   2   3     1.466801281701   104.24948604   319.98542309
 H      1   2   3     1.091872245274   114.43876658   203.42640133
 H      2   1   3     1.095759553917   110.06782188   117.34000099
 H      2   1   3     1.095088580892   113.12442239   238.72597460
 H      3   2   1     1.094523183857   112.83161078   156.54780790
 H      3   2   1     1.096628013503   110.07982737   276.98070077
 H      4   3   2     1.095413164062   112.52534669   222.25678475
 H      4   3   2     1.093891219455   112.45670684    98.86663270
 C      1   2   3     2.621864603674   135.83778408    53.11057246
 H     13   1   2     1.097111206761   121.86798586   124.84980274
 H     13   1   2     1.098191240176    78.07151795   229.01617859
 O      1   2   3     1.552547583812   111.30349807    79.08752829
 C     13   1   2     1.553651505325   125.01016754   332.36604004
 C     17  13   1     1.533112520332   111.28463117   339.25567989
 C     18  17  13     1.547337713623   101.71298138    79.05795752
 C     19  18  17     1.549506050327   103.11699764    34.98275677
 O     17  13   1     1.466899110369   110.41692246    94.52046441
 H     17  13   1     1.090961044217   109.18066591   211.97018732
 O     18  17  13     1.553179963816   110.03128731   196.37295780
 H     18  17  13     1.095739476335   113.15511386   317.78632220
 H     19  18  17     1.095011415466   112.84942002   156.47801340
 H     19  18  17     1.096268671449   110.08265723   276.93884556
 H     20  19  18     1.094616827936   112.52032141   222.23478389
 H     20  19  18     1.094147156465   112.44025067    98.86348178
 H     23  18  17     1.095284437943   109.67933698   304.18500799

---------------------------
INTERNAL COORDINATES (A.U.)
---------------------------
 C      0   0   0     0.000000000000     0.00000000     0.00000000
 C      1   0   0     2.897581852189     0.00000000     0.00000000
 C      2   1   0     2.923601769431   101.67907390     0.00000000
 C      3   2   1     2.927542599525   103.12737509    35.02687180
 O      1   2   3     2.771852715300   104.24948604   319.98542309
 H      1   2   3     2.063339516798   114.43876658   203.42640133
 H      2   1   3     2.070685465531   110.06782188   117.34000099
 H      2   1   3     2.069417510270   113.12442239   238.72597460
 H      3   2   1     2.068349064717   112.83161078   156.54780790
 H      3   2   1     2.072326616307   110.07982737   276.98070077
 H      4   3   2     2.070030883569   112.52534669   222.25678475
 H      4   3   2     2.067154825070   112.45670684    98.86663270
 C      1   2   3     4.954606061166   135.83778408    53.11057246
 H     13   1   2     2.073239719234   121.86798586   124.84980274
 H     13   1   2     2.075280686605    78.07151795   229.01617859
 O      1   2   3     2.933889743286   111.30349807    79.08752829
 C     13   1   2     2.935975852620   125.01016754   332.36604004
 C     17  13   1     2.897162795914   111.28463117   339.25567989
 C     18  17  13     2.924044515435   101.71298138    79.05795752
 C     19  18  17     2.928142077972   103.11699764    34.98275677
 O     17  13   1     2.772037584689   110.41692246    94.52046441
 H     17  13   1     2.061617596348   109.18066591   211.97018732
 O     18  17  13     2.935084768306   110.03128731   196.37295780
 H     18  17  13     2.070647524400   113.15511386   317.78632220
 H     19  18  17     2.069271688747   112.84942002   156.47801340
 H     19  18  17     2.071647558236   110.08265723   276.93884556
 H     20  19  18     2.068526026380   112.52032141   222.23478389
 H     20  19  18     2.067638475927   112.44025067    98.86348178
 H     23  18  17     2.069787626458   109.67933698   304.18500799

---------------------
BASIS SET INFORMATION
---------------------
There are 3 groups of distinct atoms

 Group   1 Type C   : 10s4p contracted to 3s2p pattern {631/31}
 Group   2 Type O   : 10s4p contracted to 3s2p pattern {631/31}
 Group   3 Type H   : 4s contracted to 2s pattern {31}

Atom   0C    basis set group =>   1
Atom   1C    basis set group =>   1
Atom   2C    basis set group =>   1
Atom   3C    basis set group =>   1
Atom   4O    basis set group =>   2
Atom   5H    basis set group =>   3
Atom   6H    basis set group =>   3
Atom   7H    basis set group =>   3
Atom   8H    basis set group =>   3
Atom   9H    basis set group =>   3
Atom  10H    basis set group =>   3
Atom  11H    basis set group =>   3
Atom  12C    basis set group =>   1
Atom  13H    basis set group =>   3
Atom  14H    basis set group =>   3
Atom  15O    basis set group =>   2
Atom  16C    basis set group =>   1
Atom  17C    basis set group =>   1
Atom  18C    basis set group =>   1
Atom  19C    basis set group =>   1
Atom  20O    basis set group =>   2
Atom  21H    basis set group =>   3
Atom  22O    basis set group =>   2
Atom  23H    basis set group =>   3
Atom  24H    basis set group =>   3
Atom  25H    basis set group =>   3
Atom  26H    basis set group =>   3
Atom  27H    basis set group =>   3
Atom  28H    basis set group =>   3
------------------------------------------------------------------------------
                           ORCA GTO INTEGRAL CALCULATION
------------------------------------------------------------------------------

                         BASIS SET STATISTICS AND STARTUP INFO

 # of primitive gaussian shells          ...  246
 # of primitive gaussian functions       ...  350
 # of contracted shells                  ...   97
 # of contracted basis functions         ...  149
 Highest angular momentum                ...    1
 Maximum contraction depth               ...    6
 Integral package used                   ... LIBINT
 Integral threshhold            Thresh   ...  2.500e-11
 Primitive cut-off              TCut     ...  2.500e-12


------------------------------ INTEGRAL EVALUATION ----------------------------


 * One electron integrals 
 Pre-screening matrix                    ... done
 Shell pair data                         ... done (   0.004 sec)

-------------------------------------------------------------------------------
                                 ORCA SCF
-------------------------------------------------------------------------------

------------
SCF SETTINGS
------------
Hamiltonian:
 Density Functional     Method          .... DFT(GTOs)
 Exchange Functional    Exchange        .... B88
   X-Alpha parameter    XAlpha          ....  0.666667
   Becke's b parameter  XBeta           ....  0.004200
 Correlation Functional Correlation     .... LYP
 LDA part of GGA corr.  LDAOpt          .... VWN-5
 Gradients option       PostSCFGGA      .... off
 Hybrid DFT is turned on
   Fraction HF Exchange ScalHFX         ....  0.200000
   Scaling of DF-GGA-X  ScalDFX         ....  0.720000
   Scaling of DF-GGA-C  ScalDFC         ....  0.810000
   Scaling of DF-LDA-C  ScalLDAC        ....  1.000000
   Perturbative correction              ....  0.000000
   Density functional embedding theory  .... OFF
   NL short-range parameter             ....  4.800000


General Settings:
 Integral files         IntName         .... project_8048/ensemble_330_120
 Hartree-Fock type      HFTyp           .... RHF
 Total Charge           Charge          ....    0
 Multiplicity           Mult            ....    1
 Number of Electrons    NEL             ....  102
 Basis Dimension        Dim             ....  149
 Nuclear Repulsion      ENuc            ....    930.6287195027 Eh

Convergence Acceleration:
 DIIS                   CNVDIIS         .... on
   Start iteration      DIISMaxIt       ....    12
   Startup error        DIISStart       ....  0.200000
   # of expansion vecs  DIISMaxEq       ....     5
   Bias factor          DIISBfac        ....   1.050
   Max. coefficient     DIISMaxC        ....  10.000
 Newton-Raphson         CNVNR           .... off
 SOSCF                  CNVSOSCF        .... on
   Start iteration      SOSCFMaxIt      ....   150
   Startup grad/error   SOSCFStart      ....  0.003300
 Level Shifting         CNVShift        .... on
   Level shift para.    LevelShift      ....    0.2500
   Turn off err/grad.   ShiftErr        ....    0.0010
 Zerner damping         CNVZerner       .... off
 Static damping         CNVDamp         .... on
   Fraction old density DampFac         ....    0.7000
   Max. Damping (<1)    DampMax         ....    0.9800
   Min. Damping (>=0)   DampMin         ....    0.0000
   Turn off err/grad.   DampErr         ....    0.1000
 Fernandez-Rico         CNVRico         .... off

SCF Procedure:
 Maximum # iterations   MaxIter         ....   125
 SCF integral mode      SCFMode         .... Direct
   Integral package                     .... LIBINT
 Reset frequency        DirectResetFreq ....    20
 Integral Threshold     Thresh          ....  2.500e-11 Eh
 Primitive CutOff       TCut            ....  2.500e-12 Eh

Convergence Tolerance:
 Convergence Check Mode ConvCheckMode   .... Total+1el-Energy
 Convergence forced     ConvForced      .... 0
 Energy Change          TolE            ....  1.000e-08 Eh
 1-El. energy change                    ....  1.000e-05 Eh
 Orbital Gradient       TolG            ....  1.000e-05
 Orbital Rotation angle TolX            ....  1.000e-05
 DIIS Error             TolErr          ....  5.000e-07


Diagonalization of the overlap matrix:
Smallest eigenvalue                        ... 3.865e-03
Time for diagonalization                   ...    0.007 sec
Threshold for overlap eigenvalues          ... 1.000e-08
Number of eigenvalues below threshold      ... 0
Time for construction of square roots      ...    0.007 sec
Total time needed                          ...    0.014 sec

-------------------
DFT GRID GENERATION
-------------------

General Integration Accuracy     IntAcc      ...  4.340
Radial Grid Type                 RadialGrid  ... Gauss-Chebyshev
Angular Grid (max. acc.)         AngularGrid ... Lebedev-110
Angular grid pruning method      GridPruning ... 3 (G Style)
Weight generation scheme         WeightScheme... Becke
Basis function cutoff            BFCut       ...    1.0000e-11
Integration weight cutoff        WCut        ...    1.0000e-14
Grids for H and He will be reduced by one unit

# of grid points (after initial pruning)     ...  34472 (   0.0 sec)
# of grid points (after weights+screening)   ...  30669 (   0.5 sec)
nearest neighbour list constructed           ...    0.0 sec
Grid point re-assignment to atoms done       ...    0.0 sec
Grid point division into batches done        ...    0.0 sec
Reduced shell lists constructed in    0.6 sec

Total number of grid points                  ...    30669
Total number of batches                      ...      493
Average number of points per batch           ...       62
Average number of grid points per atom       ...     1058
Average number of shells per batch           ...    65.67 (67.70%)
Average number of basis functions per batch  ...   106.47 (71.46%)
Average number of large shells per batch     ...    48.18 (73.36%)
Average number of large basis fcns per batch ...    79.76 (74.91%)
Maximum spatial batch extension              ...  19.49, 20.25, 20.38 au
Average spatial batch extension              ...   3.25,  3.32,  3.32 au

Time for grid setup =    1.283 sec

------------------------------
INITIAL GUESS: MODEL POTENTIAL
------------------------------
Loading Hartree-Fock densities                     ... done
Calculating cut-offs                               ... done
Setting up the integral package                    ... done
Initializing the effective Hamiltonian             ... done
Starting the Coulomb interaction                   ... done (   0.7 sec)
Reading the grid                                   ... done
Mapping shells                                     ... done
Starting the XC term evaluation                    ... done (   0.8 sec)
  promolecular density results
     # of electrons  =    101.991735239
     EX              =    -83.730400518
     EC              =     -3.478239642
     EX+EC           =    -87.208640160
Transforming the Hamiltonian                       ... done (   0.1 sec)
Diagonalizing the Hamiltonian                      ... done (   0.0 sec)
Back transforming the eigenvectors                 ... done (   0.0 sec)
Now organizing SCF variables                       ... done
                      ------------------
                      INITIAL GUESS DONE (   3.0 sec)
                      ------------------
--------------
SCF ITERATIONS
--------------
ITER       Energy         Delta-E        Max-DP      RMS-DP      [F,P]     Damp
               ***  Starting incremental Fock matrix formation  ***
  0   -652.4853695059   0.000000000000 0.07637672  0.00300588  0.2441415 0.7000
  1   -652.6202110775  -0.134841571585 0.04474573  0.00205993  0.1053017 0.7000
                               ***Turning on DIIS***
  2   -652.6710669144  -0.050855836975 0.05657759  0.00332674  0.0293594 0.0000
  3   -652.7555626786  -0.084495764161 0.03078791  0.00137905  0.0555588 0.0000
  4   -652.7720731014  -0.016510422831 0.00937019  0.00042076  0.0096383 0.0000
  5   -652.7729450426  -0.000871941143 0.00287188  0.00013492  0.0041824 0.0000
                      *** Initiating the SOSCF procedure ***
                           *** Shutting down DIIS ***
                      *** Re-Reading the Fockian *** 
                      *** Removing any level shift *** 
ITER      Energy       Delta-E        Grad      Rot      Max-DP    RMS-DP
  6   -652.77301782  -0.0000727745  0.000158  0.000158  0.001051  0.000054
               *** Restarting incremental Fock matrix formation ***
  7   -652.77302005  -0.0000022372  0.000133  0.000345  0.001096  0.000033
  8   -652.77301744   0.0000026171  0.000250  0.000252  0.000743  0.000022
  9   -652.77302137  -0.0000039288  0.000028  0.000051  0.000231  0.000006
 10   -652.77302130   0.0000000634  0.000044  0.000027  0.000137  0.000004
 11   -652.77302142  -0.0000001187  0.000007  0.000006  0.000036  0.000001
 12   -652.77302142   0.0000000020  0.000010  0.000004  0.000021  0.000001
                  ***Gradient check signals convergence***
              ***Rediagonalizing the Fockian in SOSCF/NRSCF***

               *****************************************************
               *                     SUCCESS                       *
               *           SCF CONVERGED AFTER  13 CYCLES          *
               *****************************************************

Setting up the final grid:

General Integration Accuracy     IntAcc      ...  4.670
Radial Grid Type                 RadialGrid  ... Gauss-Chebyshev
Angular Grid (max. acc.)         AngularGrid ... Lebedev-302
Angular grid pruning method      GridPruning ... 3 (G Style)
Weight generation scheme         WeightScheme... Becke
Basis function cutoff            BFCut       ...    1.0000e-11
Integration weight cutoff        WCut        ...    1.0000e-14
Grids for H and He will be reduced by one unit

# of grid points (after initial pruning)     ... 135060 (   0.1 sec)
# of grid points (after weights+screening)   ... 117452 (   2.0 sec)
nearest neighbour list constructed           ...    0.0 sec
Grid point re-assignment to atoms done       ...    0.0 sec
Grid point division into batches done        ...    0.6 sec
Reduced shell lists constructed in    2.6 sec

Total number of grid points                  ...   117452
Total number of batches                      ...     1850
Average number of points per batch           ...       63
Average number of grid points per atom       ...     4050
Average number of shells per batch           ...    60.51 (62.38%)
Average number of basis functions per batch  ...    98.39 (66.03%)
Average number of large shells per batch     ...    43.23 (71.44%)
Average number of large basis fcns per batch ...    71.77 (72.95%)
Maximum spatial batch extension              ...  16.48, 18.07, 17.41 au
Average spatial batch extension              ...   2.09,  2.20,  2.17 au

Final grid set up in    4.8 sec
Final integration                            ... done (   3.1 sec)
Change in XC energy                          ...     0.000068577
Integrated number of electrons               ...   101.999687689
Previous integrated no of electrons          ...   102.002306594

----------------
TOTAL SCF ENERGY
----------------

Total Energy       :         -652.77295285 Eh          -17762.85509 eV

Components:
Nuclear Repulsion  :          930.62871950 Eh           25323.69489 eV
Electronic Energy  :        -1583.40167235 Eh          -43086.54998 eV
One Electron Energy:        -2738.75843266 Eh          -74525.40575 eV
Two Electron Energy:         1155.35676032 Eh           31438.85577 eV

Virial components:
Potential Energy   :        -1302.04209474 Eh          -35430.36664 eV
Kinetic Energy     :          649.26914190 Eh           17667.51155 eV
Virial Ratio       :            2.00539655


DFT components:
N(Alpha)           :       50.999843844420 electrons
N(Beta)            :       50.999843844420 electrons
N(Total)           :      101.999687688840 electrons
E(X)               :      -67.647604236788 Eh       
E(C)               :       -4.085489169702 Eh       
E(XC)              :      -71.733093406490 Eh       
DFET-embed. en.    :        0.000000000000 Eh       

---------------
SCF CONVERGENCE
---------------

  Last Energy change         ...   -3.9105e-09  Tolerance :   1.0000e-08
  Last MAX-Density change    ...    2.4231e-06  Tolerance :   1.0000e-07
  Last RMS-Density change    ...    9.0500e-08  Tolerance :   5.0000e-09
  Last Orbital Gradient      ...    2.9126e-07  Tolerance :   1.0000e-05
  Last Orbital Rotation      ...    4.6750e-07  Tolerance :   1.0000e-05

             **** THE GBW FILE WAS UPDATED (project_8048/ensemble_330_120.gbw) ****
             **** DENSITY FILE WAS UPDATED (project_8048/ensemble_330_120.scfp) ****
             **** ENERGY FILE WAS UPDATED (project_8048/ensemble_330_120.en.tmp) ****
             **** THE GBW FILE WAS UPDATED (project_8048/ensemble_330_120.gbw) ****
             **** DENSITY FILE WAS UPDATED (project_8048/ensemble_330_120.scfp) ****
----------------
ORBITAL ENERGIES
----------------

  NO   OCC          E(Eh)            E(eV) 
   0   2.0000     -19.164188      -521.4841 
   1   2.0000     -19.150053      -521.0994 
   2   2.0000     -19.139346      -520.8081 
   3   2.0000     -19.134197      -520.6680 
   4   2.0000     -10.293989      -280.1137 
   5   2.0000     -10.239025      -278.6180 
   6   2.0000     -10.236819      -278.5580 
   7   2.0000     -10.235151      -278.5126 
   8   2.0000     -10.229980      -278.3719 
   9   2.0000     -10.220602      -278.1167 
  10   2.0000     -10.201259      -277.5904 
  11   2.0000     -10.185820      -277.1703 
  12   2.0000     -10.173535      -276.8360 
  13   2.0000      -1.051665       -28.6173 
  14   2.0000      -1.021186       -27.7879 
  15   2.0000      -0.968123       -26.3440 
  16   2.0000      -0.958524       -26.0828 
  17   2.0000      -0.806373       -21.9425 
  18   2.0000      -0.783692       -21.3253 
  19   2.0000      -0.758768       -20.6471 
  20   2.0000      -0.738815       -20.1042 
  21   2.0000      -0.671065       -18.2606 
  22   2.0000      -0.631636       -17.1877 
  23   2.0000      -0.597220       -16.2512 
  24   2.0000      -0.586801       -15.9677 
  25   2.0000      -0.576715       -15.6932 
  26   2.0000      -0.537467       -14.6252 
  27   2.0000      -0.511417       -13.9164 
  28   2.0000      -0.496816       -13.5190 
  29   2.0000      -0.486639       -13.2421 
  30   2.0000      -0.466199       -12.6859 
  31   2.0000      -0.449312       -12.2264 
  32   2.0000      -0.445255       -12.1160 
  33   2.0000      -0.434769       -11.8307 
  34   2.0000      -0.422735       -11.5032 
  35   2.0000      -0.411629       -11.2010 
  36   2.0000      -0.401014       -10.9121 
  37   2.0000      -0.384838       -10.4720 
  38   2.0000      -0.378456       -10.2983 
  39   2.0000      -0.374525       -10.1913 
  40   2.0000      -0.365612        -9.9488 
  41   2.0000      -0.363342        -9.8871 
  42   2.0000      -0.348858        -9.4929 
  43   2.0000      -0.324677        -8.8349 
  44   2.0000      -0.316496        -8.6123 
  45   2.0000      -0.307952        -8.3798 
  46   2.0000      -0.293001        -7.9730 
  47   2.0000      -0.270788        -7.3685 
  48   2.0000      -0.261876        -7.1260 
  49   2.0000      -0.256801        -6.9879 
  50   2.0000      -0.235771        -6.4157 
  51   0.0000       0.043734         1.1901 
  52   0.0000       0.063229         1.7206 
  53   0.0000       0.080692         2.1958 
  54   0.0000       0.093452         2.5430 
  55   0.0000       0.094299         2.5660 
  56   0.0000       0.107982         2.9383 
  57   0.0000       0.117605         3.2002 
  58   0.0000       0.129468         3.5230 
  59   0.0000       0.130986         3.5643 
  60   0.0000       0.135774         3.6946 
  61   0.0000       0.144779         3.9396 
  62   0.0000       0.147508         4.0139 
  63   0.0000       0.148679         4.0458 
  64   0.0000       0.163140         4.4393 
  65   0.0000       0.169069         4.6006 
  66   0.0000       0.182339         4.9617 
  67   0.0000       0.185235         5.0405 
  68   0.0000       0.188495         5.1292 
  69   0.0000       0.193878         5.2757 
  70   0.0000       0.205698         5.5973 
  71   0.0000       0.212044         5.7700 
  72   0.0000       0.221504         6.0274 
  73   0.0000       0.238898         6.5007 
  74   0.0000       0.247791         6.7427 
  75   0.0000       0.260978         7.1016 
  76   0.0000       0.266221         7.2442 
  77   0.0000       0.289234         7.8704 
  78   0.0000       0.292337         7.9549 
  79   0.0000       0.326356         8.8806 
  80   0.0000       0.344871         9.3844 
  81   0.0000       0.499399        13.5893 
  82   0.0000       0.531893        14.4735 
  83   0.0000       0.540173        14.6989 
  84   0.0000       0.551726        15.0132 
  85   0.0000       0.558545        15.1988 
  86   0.0000       0.568613        15.4727 
  87   0.0000       0.576335        15.6829 
  88   0.0000       0.587104        15.9759 
  89   0.0000       0.596924        16.2431 
  90   0.0000       0.605417        16.4742 
  91   0.0000       0.622121        16.9288 
  92   0.0000       0.628249        17.0955 
  93   0.0000       0.635036        17.2802 
  94   0.0000       0.647393        17.6165 
  95   0.0000       0.664991        18.0953 
  96   0.0000       0.688674        18.7398 
  97   0.0000       0.701408        19.0863 
  98   0.0000       0.721746        19.6397 
  99   0.0000       0.734918        19.9981 
 100   0.0000       0.756738        20.5919 
 101   0.0000       0.772959        21.0333 
 102   0.0000       0.788686        21.4612 
 103   0.0000       0.808788        22.0082 
 104   0.0000       0.824838        22.4450 
 105   0.0000       0.837754        22.7964 
 106   0.0000       0.863261        23.4905 
 107   0.0000       0.870762        23.6946 
 108   0.0000       0.879628        23.9359 
 109   0.0000       0.881491        23.9866 
 110   0.0000       0.893088        24.3022 
 111   0.0000       0.905831        24.6489 
 112   0.0000       0.913160        24.8483 
 113   0.0000       0.920333        25.0435 
 114   0.0000       0.929593        25.2955 
 115   0.0000       0.936902        25.4944 
 116   0.0000       0.955464        25.9995 
 117   0.0000       0.961935        26.1756 
 118   0.0000       0.971374        26.4324 
 119   0.0000       0.980758        26.6878 
 120   0.0000       1.004208        27.3259 
 121   0.0000       1.039705        28.2918 
 122   0.0000       1.066451        29.0196 
 123   0.0000       1.069297        29.0970 
 124   0.0000       1.088536        29.6206 
 125   0.0000       1.098624        29.8951 
 126   0.0000       1.116996        30.3950 
 127   0.0000       1.130086        30.7512 
 128   0.0000       1.166990        31.7554 
 129   0.0000       1.178441        32.0670 
 130   0.0000       1.205956        32.8157 
 131   0.0000       1.258688        34.2506 
 132   0.0000       1.329171        36.1686 
 133   0.0000       1.336668        36.3726 
 134   0.0000       1.381177        37.5837 
 135   0.0000       1.394056        37.9342 
 136   0.0000       1.426446        38.8156 
 137   0.0000       1.454643        39.5828 
 138   0.0000       1.479680        40.2641 
 139   0.0000       1.505287        40.9609 
 140   0.0000       1.539900        41.9028 
 141   0.0000       1.598414        43.4950 
 142   0.0000       1.666689        45.3529 
 143   0.0000       1.749928        47.6180 
 144   0.0000       1.784514        48.5591 
 145   0.0000       1.935202        52.6595 
 146   0.0000       1.950245        53.0689 
 147   0.0000       2.112578        57.4862 
 148   0.0000       2.196367        59.7662 

                    ********************************
                    * MULLIKEN POPULATION ANALYSIS *
                    ********************************

-----------------------
MULLIKEN ATOMIC CHARGES
-----------------------
   0 C :    0.280984
   1 C :   -0.267565
   2 C :   -0.323844
   3 C :   -0.011011
   4 O :   -0.511359
   5 H :    0.163748
   6 H :    0.159675
   7 H :    0.162955
   8 H :    0.139263
   9 H :    0.149527
  10 H :    0.143327
  11 H :    0.153235
  12 C :   -0.031003
  13 H :    0.156428
  14 H :    0.163821
  15 O :   -0.523138
  16 C :    0.076047
  17 C :    0.072670
  18 C :   -0.316897
  19 C :   -0.007622
  20 O :   -0.523520
  21 H :    0.162150
  22 O :   -0.605425
  23 H :    0.155446
  24 H :    0.143092
  25 H :    0.206370
  26 H :    0.152545
  27 H :    0.130028
  28 H :    0.350073
Sum of atomic charges:   -0.0000000

--------------------------------
MULLIKEN REDUCED ORBITAL CHARGES
--------------------------------
  0 C s       :     3.233000  s :     3.233000
      pz      :     0.791395  p :     2.486016
      px      :     0.687844
      py      :     1.006777
  1 C s       :     3.308226  s :     3.308226
      pz      :     0.979633  p :     2.959339
      px      :     1.039247
      py      :     0.940459
  2 C s       :     3.328390  s :     3.328390
      pz      :     0.893937  p :     2.995454
      px      :     1.124381
      py      :     0.977136
  3 C s       :     3.267105  s :     3.267105
      pz      :     0.919454  p :     2.743907
      px      :     1.082127
      py      :     0.742326
  4 O s       :     3.945218  s :     3.945218
      pz      :     1.317245  p :     4.566141
      px      :     1.729381
      py      :     1.519515
  5 H s       :     0.836252  s :     0.836252
  6 H s       :     0.840325  s :     0.840325
  7 H s       :     0.837045  s :     0.837045
  8 H s       :     0.860737  s :     0.860737
  9 H s       :     0.850473  s :     0.850473
 10 H s       :     0.856673  s :     0.856673
 11 H s       :     0.846765  s :     0.846765
 12 C s       :     3.289020  s :     3.289020
      pz      :     0.863506  p :     2.741984
      px      :     0.974162
      py      :     0.904316
 13 H s       :     0.843572  s :     0.843572
 14 H s       :     0.836179  s :     0.836179
 15 O s       :     3.950879  s :     3.950879
      pz      :     1.643893  p :     4.572258
      px      :     1.272067
      py      :     1.656298
 16 C s       :     3.269369  s :     3.269369
      pz      :     0.943016  p :     2.654584
      px      :     0.827744
      py      :     0.883824
 17 C s       :     3.307028  s :     3.307028
      pz      :     0.714443  p :     2.620303
      px      :     0.996355
      py      :     0.909504
 18 C s       :     3.344830  s :     3.344830
      pz      :     0.984402  p :     2.972066
      px      :     0.997906
      py      :     0.989759
 19 C s       :     3.259846  s :     3.259846
      pz      :     1.078903  p :     2.747776
      px      :     0.917813
      py      :     0.751060
 20 O s       :     3.944257  s :     3.944257
      pz      :     1.764117  p :     4.579263
      px      :     1.551061
      py      :     1.264085
 21 H s       :     0.837850  s :     0.837850
 22 O s       :     3.951526  s :     3.951526
      pz      :     1.473977  p :     4.653899
      px      :     1.381060
      py      :     1.798863
 23 H s       :     0.844554  s :     0.844554
 24 H s       :     0.856908  s :     0.856908
 25 H s       :     0.793630  s :     0.793630
 26 H s       :     0.847455  s :     0.847455
 27 H s       :     0.869972  s :     0.869972
 28 H s       :     0.649927  s :     0.649927


                     *******************************
                     * LOEWDIN POPULATION ANALYSIS *
                     *******************************

----------------------
LOEWDIN ATOMIC CHARGES
----------------------
   0 C :    0.184283
   1 C :   -0.217909
   2 C :   -0.253939
   3 C :   -0.038526
   4 O :   -0.317990
   5 H :    0.110336
   6 H :    0.123829
   7 H :    0.126962
   8 H :    0.114919
   9 H :    0.149253
  10 H :    0.106261
  11 H :    0.108766
  12 C :   -0.047130
  13 H :    0.115426
  14 H :    0.117962
  15 O :   -0.364135
  16 C :    0.019598
  17 C :    0.035861
  18 C :   -0.266704
  19 C :   -0.030840
  20 O :   -0.329241
  21 H :    0.124192
  22 O :   -0.448747
  23 H :    0.124185
  24 H :    0.113276
  25 H :    0.153020
  26 H :    0.108415
  27 H :    0.092579
  28 H :    0.286039

-------------------------------
LOEWDIN REDUCED ORBITAL CHARGES
-------------------------------
  0 C s       :     2.982013  s :     2.982013
      pz      :     0.913455  p :     2.833703
      px      :     0.830260
      py      :     1.089988
  1 C s       :     2.975667  s :     2.975667
      pz      :     1.078342  p :     3.242242
      px      :     1.110832
      py      :     1.053069
  2 C s       :     2.980492  s :     2.980492
      pz      :     1.026684  p :     3.273446
      px      :     1.158827
      py      :     1.087935
  3 C s       :     2.985373  s :     2.985373
      pz      :     1.039078  p :     3.053153
      px      :     1.128042
      py      :     0.886034
  4 O s       :     3.607170  s :     3.607170
      pz      :     1.382116  p :     4.710820
      px      :     1.760641
      py      :     1.568062
  5 H s       :     0.889664  s :     0.889664
  6 H s       :     0.876171  s :     0.876171
  7 H s       :     0.873038  s :     0.873038
  8 H s       :     0.885081  s :     0.885081
  9 H s       :     0.850747  s :     0.850747
 10 H s       :     0.893739  s :     0.893739
 11 H s       :     0.891234  s :     0.891234
 12 C s       :     3.005589  s :     3.005589
      pz      :     0.974093  p :     3.041541
      px      :     1.065649
      py      :     1.001799
 13 H s       :     0.884574  s :     0.884574
 14 H s       :     0.882038  s :     0.882038
 15 O s       :     3.655625  s :     3.655625
      pz      :     1.671732  p :     4.708510
      px      :     1.340317
      py      :     1.696461
 16 C s       :     2.969502  s :     2.969502
      pz      :     1.039885  p :     3.010900
      px      :     0.956261
      py      :     1.014754
 17 C s       :     2.977135  s :     2.977135
      pz      :     0.879720  p :     2.987004
      px      :     1.067630
      py      :     1.039655
 18 C s       :     2.992737  s :     2.992737
      pz      :     1.098835  p :     3.273968
      px      :     1.092417
      py      :     1.082716
 19 C s       :     2.982371  s :     2.982371
      pz      :     1.129835  p :     3.048469
      px      :     1.034298
      py      :     0.884336
 20 O s       :     3.600776  s :     3.600776
      pz      :     1.791829  p :     4.728466
      px      :     1.602204
      py      :     1.334433
 21 H s       :     0.875808  s :     0.875808
 22 O s       :     3.692328  s :     3.692328
      pz      :     1.521634  p :     4.756419
      px      :     1.420563
      py      :     1.814222
 23 H s       :     0.875815  s :     0.875815
 24 H s       :     0.886724  s :     0.886724
 25 H s       :     0.846980  s :     0.846980
 26 H s       :     0.891585  s :     0.891585
 27 H s       :     0.907421  s :     0.907421
 28 H s       :     0.713961  s :     0.713961


                      *****************************
                      * MAYER POPULATION ANALYSIS *
                      *****************************

  NA   - Mulliken gross atomic population
  ZA   - Total nuclear charge
  QA   - Mulliken gross atomic charge
  VA   - Mayer's total valence
  BVA  - Mayer's bonded valence
  FA   - Mayer's free valence

  ATOM       NA         ZA         QA         VA         BVA        FA
  0 C      5.7190     6.0000     0.2810     3.6311     3.6311     0.0000
  1 C      6.2676     6.0000    -0.2676     3.7135     3.7135    -0.0000
  2 C      6.3238     6.0000    -0.3238     3.7048     3.7048    -0.0000
  3 C      6.0110     6.0000    -0.0110     3.6234     3.6234    -0.0000
  4 O      8.5114     8.0000    -0.5114     1.7990     1.7990     0.0000
  5 H      0.8363     1.0000     0.1637     0.9237     0.9237    -0.0000
  6 H      0.8403     1.0000     0.1597     0.9313     0.9313    -0.0000
  7 H      0.8370     1.0000     0.1630     0.9356     0.9356    -0.0000
  8 H      0.8607     1.0000     0.1393     0.9434     0.9434    -0.0000
  9 H      0.8505     1.0000     0.1495     0.9425     0.9425    -0.0000
 10 H      0.8567     1.0000     0.1433     0.9138     0.9138    -0.0000
 11 H      0.8468     1.0000     0.1532     0.9315     0.9315    -0.0000
 12 C      6.0310     6.0000    -0.0310     3.6064     3.6064    -0.0000
 13 H      0.8436     1.0000     0.1564     0.9305     0.9305    -0.0000
 14 H      0.8362     1.0000     0.1638     0.9365     0.9365    -0.0000
 15 O      8.5231     8.0000    -0.5231     1.8016     1.8016    -0.0000
 16 C      5.9240     6.0000     0.0760     3.6007     3.6007    -0.0000
 17 C      5.9273     6.0000     0.0727     3.6330     3.6330    -0.0000
 18 C      6.3169     6.0000    -0.3169     3.6430     3.6430    -0.0000
 19 C      6.0076     6.0000    -0.0076     3.6627     3.6627    -0.0000
 20 O      8.5235     8.0000    -0.5235     1.7693     1.7693    -0.0000
 21 H      0.8379     1.0000     0.1621     0.9345     0.9345    -0.0000
 22 O      8.6054     8.0000    -0.6054     1.7507     1.7507     0.0000
 23 H      0.8446     1.0000     0.1554     0.9326     0.9326    -0.0000
 24 H      0.8569     1.0000     0.1431     0.9336     0.9336     0.0000
 25 H      0.7936     1.0000     0.2064     0.9023     0.9023    -0.0000
 26 H      0.8475     1.0000     0.1525     0.9301     0.9301    -0.0000
 27 H      0.8700     1.0000     0.1300     0.9292     0.9292    -0.0000
 28 H      0.6499     1.0000     0.3501     0.8487     0.8487     0.0000

  Mayer bond orders larger than 0.100000
B(  0-C ,  1-C ) :   0.9364 B(  0-C ,  4-O ) :   0.8898 B(  0-C ,  5-H ) :   0.9215 
B(  0-C , 15-O ) :   0.8459 B(  1-C ,  2-C ) :   0.9480 B(  1-C ,  6-H ) :   0.9342 
B(  1-C ,  7-H ) :   0.9327 B(  2-C ,  3-C ) :   0.9431 B(  2-C ,  8-H ) :   0.9410 
B(  2-C ,  9-H ) :   0.8737 B(  3-C ,  4-O ) :   0.8269 B(  3-C , 10-H ) :   0.8956 
B(  3-C , 11-H ) :   0.9407 B( 12-C , 13-H ) :   0.9270 B( 12-C , 14-H ) :   0.8997 
B( 12-C , 15-O ) :   0.8486 B( 12-C , 16-C ) :   0.8904 B( 16-C , 17-C ) :   0.9031 
B( 16-C , 20-O ) :   0.8706 B( 16-C , 21-H ) :   0.9199 B( 17-C , 18-C ) :   0.9224 
B( 17-C , 22-O ) :   0.8824 B( 17-C , 23-H ) :   0.8935 B( 18-C , 19-C ) :   0.9353 
B( 18-C , 24-H ) :   0.9236 B( 18-C , 25-H ) :   0.8183 B( 19-C , 20-O ) :   0.8414 
B( 19-C , 26-H ) :   0.9327 B( 19-C , 27-H ) :   0.9362 B( 22-O , 28-H ) :   0.8074 


-------
TIMINGS
-------

Total SCF time: 0 days 0 hours 3 min 1 sec 

Total time                  ....     181.300 sec
Sum of individual times     ....     180.409 sec  ( 99.5%)

Fock matrix formation       ....     172.352 sec  ( 95.1%)
  XC integration            ....      14.613 sec  (  8.5% of F)
    Basis function eval.    ....       5.278 sec  ( 36.1% of XC)
    Density eval.           ....       2.526 sec  ( 17.3% of XC)
    XC-Functional eval.     ....       0.921 sec  (  6.3% of XC)
    XC-Potential eval.      ....       3.757 sec  ( 25.7% of XC)
Diagonalization             ....       0.082 sec  (  0.0%)
Density matrix formation    ....       0.012 sec  (  0.0%)
Population analysis         ....       0.013 sec  (  0.0%)
Initial guess               ....       1.731 sec  (  1.0%)
Orbital Transformation      ....       0.000 sec  (  0.0%)
Orbital Orthonormalization  ....       0.000 sec  (  0.0%)
DIIS solution               ....       0.056 sec  (  0.0%)
SOSCF solution              ....       0.082 sec  (  0.0%)
Grid generation             ....       6.081 sec  (  3.4%)

-------------------------   --------------------
FINAL SINGLE POINT ENERGY      -652.772952845741
-------------------------   --------------------

------------------------------------------------------------------------------
                         ORCA SCF GRADIENT CALCULATION
------------------------------------------------------------------------------

Gradient of the Kohn-Sham DFT energy:
Kohn-Sham wavefunction type      ... RKS
Hartree-Fock exchange scaling    ...    0.200
Number of operators              ...    1
Number of atoms                  ...   29
Basis set dimensions             ...  149
Integral neglect threshold       ... 2.5e-11
Integral primitive cutoff        ... 2.5e-12

Nuclear repulsion gradient       ... done
One Electron Gradient            ... done
Pre-screening matrix             ... done
Starting the two electron gradient:
Two electron gradient done
Exchange-correlation gradient    ... done

------------------
CARTESIAN GRADIENT
------------------

   1   C   :    0.014230696    0.010843874   -0.012784464
   2   C   :    0.013279435   -0.002992713   -0.003671468
   3   C   :   -0.025900981   -0.007771306    0.001509546
   4   C   :   -0.013488505   -0.007614478   -0.002054794
   5   O   :    0.007573178   -0.004974961    0.012838674
   6   H   :    0.004728007    0.001646356   -0.002180051
   7   H   :    0.001340389    0.003440279    0.000728065
   8   H   :    0.000806841    0.001959601   -0.000368704
   9   H   :   -0.003908493    0.002450922    0.000796905
  10   H   :   -0.052656446   -0.006346730    0.005681752
  11   H   :   -0.017218406   -0.000668051    0.006081970
  12   H   :   -0.000075071    0.001005856    0.001199510
  13   C   :   -0.005946266   -0.004086175    0.004297542
  14   H   :   -0.003010744   -0.006503140    0.007060667
  15   H   :   -0.002602122   -0.003438722    0.005389618
  16   O   :   -0.018458861    0.021581764   -0.015328889
  17   C   :   -0.013166606   -0.004513219    0.020255849
  18   C   :    0.030171258   -0.015347746   -0.019823066
  19   C   :    0.029644166   -0.000649039   -0.003474254
  20   C   :   -0.000858164   -0.002931903   -0.000683916
  21   O   :    0.001331455   -0.000447671   -0.002545415
  22   H   :   -0.001475205    0.000508635   -0.002156248
  23   O   :    0.036779373   -0.013103072    0.032898513
  24   H   :    0.024518219   -0.002367824   -0.013241673
  25   H   :    0.001846129    0.000518658   -0.004454972
  26   H   :    0.055442293    0.009031507   -0.011562159
  27   H   :   -0.000978536    0.001346513   -0.000630640
  28   H   :    0.001292750   -0.000731693   -0.000001761
  29   H   :   -0.063239783    0.030154478   -0.003776137

Difference to translation invariance:
           :   -0.0000000000   -0.0000000001   -0.0000000002

Norm of the cartesian gradient     ...    0.1452894515
RMS gradient                       ...    0.0155766642
MAX gradient                       ...    0.0632397827

-------
TIMINGS
-------

Total SCF gradient time            ...       63.710 sec

One electron gradient       ....       0.603 sec  (  0.9%)
Prescreening matrices       ....       0.096 sec  (  0.1%)
Two electron gradient       ....      43.347 sec  ( 68.0%)
XC gradient                 ....      19.493 sec  ( 30.6%)
------------------------------------------------------------------------------
                         ORCA GEOMETRY RELAXATION STEP
------------------------------------------------------------------------------

Reading the OPT-File                    .... done
Getting information on internals        .... done
Copying old internal coords+grads       .... done
Making the new internal coordinates     .... (new redundants).... done
Validating the new internal coordinates .... (new redundants).... done
Calculating the B-matrix                .... done
Calculating the G,G- and P matrices     .... done
Transforming gradient to internals      .... done
Projecting the internal gradient        .... done
Number of atoms                         ....  29
Number of internal coordinates          .... 172
Current Energy                          ....  -652.772952846 Eh
Current gradient norm                   ....     0.145289451 Eh/bohr
Maximum allowed component of the step   ....  0.300
Current trust radius                    ....  0.300
Evaluating the initial hessian          ....  (Almloef) done
Projecting the Hessian                  .... done
Forming the augmented Hessian           .... done
Diagonalizing the augmented Hessian     .... done
Last element of RFO vector              ....  0.778359562
Lowest eigenvalues of augmented Hessian:
 -0.360873793  0.007763871  0.032974153  0.033604182  0.036793951
Length of the computed step             ....  0.806592209
Warning: the length of the step is outside the trust region - taking restricted step instead
The input lambda is                     ....    -0.360874
   iter:   1  x=   -0.589367  g=    2.453428 f(x)=     0.560591
   iter:   2  x=   -0.870326  g=    0.824199 f(x)=     0.231566
   iter:   3  x=   -1.130899  g=    0.324887 f(x)=     0.084657
   iter:   4  x=   -1.269105  g=    0.168707 f(x)=     0.023316
   iter:   5  x=   -1.294436  g=    0.125540 f(x)=     0.003180
   iter:   6  x=   -1.295107  g=    0.119290 f(x)=     0.000080
   iter:   7  x=   -1.295107  g=    0.119130 f(x)=     0.000000
   iter:   8  x=   -1.295107  g=    0.119130 f(x)=     0.000000
   iter:   9  x=   -1.295107  g=    0.119130 f(x)=     0.000000
The output lambda is                    ....    -1.295107 (9 iterations)
The final length of the internal step   ....  0.300000000
Converting the step to cartesian space:
 Initial RMS(Int)=    0.0228747855
Transforming coordinates:
 Iter   0:  RMS(Cart)=    0.3426217002 RMS(Int)=    0.4792067769
 Iter   1:  RMS(Cart)=    0.0193855401 RMS(Int)=    0.0079350295
 Iter   2:  RMS(Cart)=    0.0037314512 RMS(Int)=    0.0005334659
 Iter   3:  RMS(Cart)=    0.0004463735 RMS(Int)=    0.0001893149
 Iter   4:  RMS(Cart)=    0.0000890604 RMS(Int)=    0.0000175370
 Iter   5:  RMS(Cart)=    0.0000113508 RMS(Int)=    0.0000047885
[...]
  29   2.0000      -0.490625       -13.3506 
  30   2.0000      -0.470562       -12.8047 
  31   2.0000      -0.462352       -12.5812 
  32   2.0000      -0.451366       -12.2823 
  33   2.0000      -0.440396       -11.9838 
  34   2.0000      -0.421708       -11.4752 
  35   2.0000      -0.414881       -11.2895 
  36   2.0000      -0.407928       -11.1003 
  37   2.0000      -0.389232       -10.5915 
  38   2.0000      -0.377213       -10.2645 
  39   2.0000      -0.372085       -10.1250 
  40   2.0000      -0.366756        -9.9799 
  41   2.0000      -0.357717        -9.7340 
  42   2.0000      -0.350939        -9.5495 
  43   2.0000      -0.340428        -9.2635 
  44   2.0000      -0.327206        -8.9037 
  45   2.0000      -0.305858        -8.3228 
  46   2.0000      -0.302615        -8.2346 
  47   2.0000      -0.271639        -7.3917 
  48   2.0000      -0.266357        -7.2479 
  49   2.0000      -0.263668        -7.1748 
  50   2.0000      -0.236401        -6.4328 
  51   0.0000       0.062678         1.7056 
  52   0.0000       0.075557         2.0560 
  53   0.0000       0.088495         2.4081 
  54   0.0000       0.099696         2.7129 
  55   0.0000       0.102601         2.7919 
  56   0.0000       0.111718         3.0400 
  57   0.0000       0.123885         3.3711 
  58   0.0000       0.128708         3.5023 
  59   0.0000       0.136816         3.7229 
  60   0.0000       0.139087         3.7848 
  61   0.0000       0.145308         3.9540 
  62   0.0000       0.148113         4.0304 
  63   0.0000       0.156096         4.2476 
  64   0.0000       0.164781         4.4839 
  65   0.0000       0.167297         4.5524 
  66   0.0000       0.183529         4.9941 
  67   0.0000       0.189263         5.1501 
  68   0.0000       0.198356         5.3976 
  69   0.0000       0.206582         5.6214 
  70   0.0000       0.208848         5.6830 
  71   0.0000       0.214755         5.8438 
  72   0.0000       0.234755         6.3880 
  73   0.0000       0.243177         6.6172 
  74   0.0000       0.252286         6.8651 
  75   0.0000       0.258225         7.0267 
  76   0.0000       0.277095         7.5401 
  77   0.0000       0.285127         7.7587 
  78   0.0000       0.302468         8.2306 
  79   0.0000       0.315872         8.5953 
  80   0.0000       0.319823         8.7028 
  81   0.0000       0.504067        13.7164 
  82   0.0000       0.527444        14.3525 
  83   0.0000       0.544198        14.8084 
  84   0.0000       0.552670        15.0389 
  85   0.0000       0.561461        15.2781 
  86   0.0000       0.567869        15.4525 
  87   0.0000       0.579496        15.7689 
  88   0.0000       0.588521        16.0145 
  89   0.0000       0.594711        16.1829 
  90   0.0000       0.603406        16.4195 
  91   0.0000       0.609803        16.5936 
  92   0.0000       0.623679        16.9712 
  93   0.0000       0.628300        17.0969 
  94   0.0000       0.642878        17.4936 
  95   0.0000       0.654506        17.8100 
  96   0.0000       0.670205        18.2372 
  97   0.0000       0.685349        18.6493 
  98   0.0000       0.703342        19.1389 
  99   0.0000       0.725179        19.7331 
 100   0.0000       0.741277        20.1712 
 101   0.0000       0.786468        21.4009 
 102   0.0000       0.794813        21.6280 
 103   0.0000       0.799507        21.7557 
 104   0.0000       0.814709        22.1694 
 105   0.0000       0.828404        22.5420 
 106   0.0000       0.841133        22.8884 
 107   0.0000       0.860938        23.4273 
 108   0.0000       0.870205        23.6795 
 109   0.0000       0.880753        23.9665 
 110   0.0000       0.882530        24.0149 
 111   0.0000       0.898834        24.4585 
 112   0.0000       0.911196        24.7949 
 113   0.0000       0.912447        24.8289 
 114   0.0000       0.924246        25.1500 
 115   0.0000       0.935399        25.4535 
 116   0.0000       0.937447        25.5092 
 117   0.0000       0.945375        25.7250 
 118   0.0000       0.949619        25.8404 
 119   0.0000       0.976394        26.5690 
 120   0.0000       0.986535        26.8450 
 121   0.0000       0.993506        27.0347 
 122   0.0000       1.006452        27.3870 
 123   0.0000       1.052315        28.6350 
 124   0.0000       1.083014        29.4703 
 125   0.0000       1.092179        29.7197 
 126   0.0000       1.107578        30.1387 
 127   0.0000       1.120979        30.5034 
 128   0.0000       1.138910        30.9913 
 129   0.0000       1.153301        31.3829 
 130   0.0000       1.175787        31.9948 
 131   0.0000       1.219825        33.1931 
 132   0.0000       1.263800        34.3897 
 133   0.0000       1.300558        35.3900 
 134   0.0000       1.345707        36.6185 
 135   0.0000       1.370135        37.2833 
 136   0.0000       1.406438        38.2711 
 137   0.0000       1.413210        38.4554 
 138   0.0000       1.458540        39.6889 
 139   0.0000       1.475454        40.1492 
 140   0.0000       1.520222        41.3673 
 141   0.0000       1.569621        42.7116 
 142   0.0000       1.690916        46.0122 
 143   0.0000       1.732724        47.1498 
 144   0.0000       1.782236        48.4971 
 145   0.0000       1.897657        51.6379 
 146   0.0000       1.931434        52.5570 
 147   0.0000       2.083836        56.7041 
 148   0.0000       2.118680        57.6522 

                    ********************************
                    * MULLIKEN POPULATION ANALYSIS *
                    ********************************

-----------------------
MULLIKEN ATOMIC CHARGES
-----------------------
   0 C :    0.306376
   1 C :   -0.268234
   2 C :   -0.313266
   3 C :   -0.020342
   4 O :   -0.515695
   5 H :    0.149822
   6 H :    0.154009
   7 H :    0.160918
   8 H :    0.146472
   9 H :    0.161567
  10 H :    0.146773
  11 H :    0.154814
  12 C :   -0.013418
  13 H :    0.155964
  14 H :    0.158260
  15 O :   -0.532400
  16 C :    0.071319
  17 C :    0.066061
  18 C :   -0.305708
  19 C :   -0.019619
  20 O :   -0.524458
  21 H :    0.156264
  22 O :   -0.602469
  23 H :    0.158871
  24 H :    0.149696
  25 H :    0.162334
  26 H :    0.153949
  27 H :    0.138633
  28 H :    0.363507
Sum of atomic charges:   -0.0000000

--------------------------------
MULLIKEN REDUCED ORBITAL CHARGES
--------------------------------
  0 C s       :     3.182157  s :     3.182157
      pz      :     0.774371  p :     2.511466
      px      :     0.689774
      py      :     1.047321
  1 C s       :     3.313003  s :     3.313003
      pz      :     0.983888  p :     2.955231
      px      :     1.027548
      py      :     0.943795
  2 C s       :     3.319314  s :     3.319314
      pz      :     0.913606  p :     2.993952
      px      :     1.089588
      py      :     0.990759
  3 C s       :     3.272989  s :     3.272989
      pz      :     0.976711  p :     2.747352
      px      :     1.032086
      py      :     0.738556
  4 O s       :     3.940614  s :     3.940614
      pz      :     1.406879  p :     4.575080
      px      :     1.657966
      py      :     1.510235
  5 H s       :     0.850178  s :     0.850178
  6 H s       :     0.845991  s :     0.845991
  7 H s       :     0.839082  s :     0.839082
  8 H s       :     0.853528  s :     0.853528
  9 H s       :     0.838433  s :     0.838433
 10 H s       :     0.853227  s :     0.853227
 11 H s       :     0.845186  s :     0.845186
 12 C s       :     3.261508  s :     3.261508
      pz      :     0.871511  p :     2.751910
      px      :     0.946309
      py      :     0.934090
 13 H s       :     0.844036  s :     0.844036
 14 H s       :     0.841740  s :     0.841740
 15 O s       :     3.929106  s :     3.929106
      pz      :     1.612393  p :     4.603294
      px      :     1.252213
      py      :     1.738688
 16 C s       :     3.258438  s :     3.258438
      pz      :     0.932364  p :     2.670244
      px      :     0.847759
      py      :     0.890120
 17 C s       :     3.270674  s :     3.270674
      pz      :     0.756911  p :     2.663264
      px      :     0.968595
      py      :     0.937757
 18 C s       :     3.321832  s :     3.321832
      pz      :     1.001588  p :     2.983876
      px      :     0.984888
      py      :     0.997399
 19 C s       :     3.264697  s :     3.264697
      pz      :     1.081661  p :     2.754922
      px      :     0.962356
      py      :     0.710905
 20 O s       :     3.944007  s :     3.944007
      pz      :     1.781475  p :     4.580450
      px      :     1.581021
      py      :     1.217954
 21 H s       :     0.843736  s :     0.843736
 22 O s       :     3.920657  s :     3.920657
      pz      :     1.511626  p :     4.681813
      px      :     1.261967
      py      :     1.908219
 23 H s       :     0.841129  s :     0.841129
 24 H s       :     0.850304  s :     0.850304
 25 H s       :     0.837666  s :     0.837666
 26 H s       :     0.846051  s :     0.846051
 27 H s       :     0.861367  s :     0.861367
 28 H s       :     0.636493  s :     0.636493


                     *******************************
                     * LOEWDIN POPULATION ANALYSIS *
                     *******************************

----------------------
LOEWDIN ATOMIC CHARGES
----------------------
   0 C :    0.175598
   1 C :   -0.212607
   2 C :   -0.221285
   3 C :   -0.032713
   4 O :   -0.324056
   5 H :    0.092994
   6 H :    0.120176
   7 H :    0.126995
   8 H :    0.117214
   9 H :    0.114316
  10 H :    0.102330
  11 H :    0.109219
  12 C :   -0.042524
  13 H :    0.113951
  14 H :    0.115884
  15 O :   -0.339390
  16 C :    0.009511
  17 C :    0.036081
  18 C :   -0.243770
  19 C :   -0.033445
  20 O :   -0.328977
  21 H :    0.117836
  22 O :   -0.416484
  23 H :    0.116260
  24 H :    0.121129
  25 H :    0.118173
  26 H :    0.108664
  27 H :    0.096819
  28 H :    0.282102

-------------------------------
LOEWDIN REDUCED ORBITAL CHARGES
-------------------------------
  0 C s       :     2.950320  s :     2.950320
      pz      :     0.904635  p :     2.874082
      px      :     0.860367
      py      :     1.109079
  1 C s       :     2.976304  s :     2.976304
      pz      :     1.078185  p :     3.236304
      px      :     1.102494
      py      :     1.055624
  2 C s       :     2.971560  s :     2.971560
      pz      :     1.036458  p :     3.249724
      px      :     1.129597
      py      :     1.083669
  3 C s       :     2.987640  s :     2.987640
      pz      :     1.071999  p :     3.045073
      px      :     1.095558
      py      :     0.877516
  4 O s       :     3.605312  s :     3.605312
      pz      :     1.467511  p :     4.718744
      px      :     1.696486
      py      :     1.554747
  5 H s       :     0.907006  s :     0.907006
  6 H s       :     0.879824  s :     0.879824
  7 H s       :     0.873005  s :     0.873005
  8 H s       :     0.882786  s :     0.882786
  9 H s       :     0.885684  s :     0.885684
 10 H s       :     0.897670  s :     0.897670
 11 H s       :     0.890781  s :     0.890781
 12 C s       :     2.980018  s :     2.980018
      pz      :     0.991095  p :     3.062507
      px      :     1.048122
      py      :     1.023289
 13 H s       :     0.886049  s :     0.886049
 14 H s       :     0.884116  s :     0.884116
 15 O s       :     3.589406  s :     3.589406
      pz      :     1.647596  p :     4.749984
      px      :     1.325570
      py      :     1.776818
 16 C s       :     2.965743  s :     2.965743
      pz      :     1.032179  p :     3.024747
      px      :     0.970493
      py      :     1.022075
 17 C s       :     2.952368  s :     2.952368
      pz      :     0.917603  p :     3.011552
      px      :     1.038478
      py      :     1.055470
 18 C s       :     2.982583  s :     2.982583
      pz      :     1.090362  p :     3.261187
      px      :     1.086631
      py      :     1.084194
 19 C s       :     2.982971  s :     2.982971
      pz      :     1.132547  p :     3.050474
      px      :     1.065987
      py      :     0.851939
 20 O s       :     3.599222  s :     3.599222
      pz      :     1.811617  p :     4.729755
      px      :     1.625998
      py      :     1.292140
 21 H s       :     0.882164  s :     0.882164
 22 O s       :     3.615544  s :     3.615544
      pz      :     1.564053  p :     4.800940
      px      :     1.319101
      py      :     1.917786
 23 H s       :     0.883740  s :     0.883740
 24 H s       :     0.878871  s :     0.878871
 25 H s       :     0.881827  s :     0.881827
 26 H s       :     0.891336  s :     0.891336
 27 H s       :     0.903181  s :     0.903181
 28 H s       :     0.717898  s :     0.717898


                      *****************************
                      * MAYER POPULATION ANALYSIS *
                      *****************************

  NA   - Mulliken gross atomic population
  ZA   - Total nuclear charge
  QA   - Mulliken gross atomic charge
  VA   - Mayer's total valence
  BVA  - Mayer's bonded valence
  FA   - Mayer's free valence

  ATOM       NA         ZA         QA         VA         BVA        FA
  0 C      5.6936     6.0000     0.3064     3.6524     3.6524     0.0000
  1 C      6.2682     6.0000    -0.2682     3.7255     3.7255    -0.0000
  2 C      6.3133     6.0000    -0.3133     3.7608     3.7608    -0.0000
  3 C      6.0203     6.0000    -0.0203     3.6505     3.6505    -0.0000
  4 O      8.5157     8.0000    -0.5157     1.7892     1.7892    -0.0000
  5 H      0.8502     1.0000     0.1498     0.9241     0.9241    -0.0000
  6 H      0.8460     1.0000     0.1540     0.9326     0.9326    -0.0000
  7 H      0.8391     1.0000     0.1609     0.9386     0.9386    -0.0000
  8 H      0.8535     1.0000     0.1465     0.9363     0.9363    -0.0000
  9 H      0.8384     1.0000     0.1616     0.9348     0.9348    -0.0000
 10 H      0.8532     1.0000     0.1468     0.9273     0.9273     0.0000
 11 H      0.8452     1.0000     0.1548     0.9280     0.9280    -0.0000
 12 C      6.0134     6.0000    -0.0134     3.6254     3.6254    -0.0000
 13 H      0.8440     1.0000     0.1560     0.9292     0.9292     0.0000
 14 H      0.8417     1.0000     0.1583     0.9386     0.9386    -0.0000
 15 O      8.5324     8.0000    -0.5324     1.7582     1.7582    -0.0000
 16 C      5.9287     6.0000     0.0713     3.6004     3.6004    -0.0000
 17 C      5.9339     6.0000     0.0661     3.6514     3.6514    -0.0000
 18 C      6.3057     6.0000    -0.3057     3.6847     3.6847    -0.0000
 19 C      6.0196     6.0000    -0.0196     3.6648     3.6648    -0.0000
 20 O      8.5245     8.0000    -0.5245     1.7646     1.7646    -0.0000
 21 H      0.8437     1.0000     0.1563     0.9326     0.9326     0.0000
 22 O      8.6025     8.0000    -0.6025     1.7420     1.7420    -0.0000
 23 H      0.8411     1.0000     0.1589     0.9385     0.9385    -0.0000
 24 H      0.8503     1.0000     0.1497     0.9412     0.9412     0.0000
 25 H      0.8377     1.0000     0.1623     0.9403     0.9403    -0.0000
 26 H      0.8461     1.0000     0.1539     0.9272     0.9272    -0.0000
 27 H      0.8614     1.0000     0.1386     0.9284     0.9284     0.0000
 28 H      0.6365     1.0000     0.3635     0.8335     0.8335    -0.0000

  Mayer bond orders larger than 0.100000
B(  0-C ,  1-C ) :   0.9364 B(  0-C ,  4-O ) :   0.8911 B(  0-C ,  5-H ) :   0.9275 
B(  0-C , 15-O ) :   0.8644 B(  1-C ,  2-C ) :   0.9592 B(  1-C ,  6-H ) :   0.9376 
B(  1-C ,  7-H ) :   0.9357 B(  2-C ,  3-C ) :   0.9537 B(  2-C ,  8-H ) :   0.9427 
B(  2-C ,  9-H ) :   0.9251 B(  3-C ,  4-O ) :   0.8337 B(  3-C , 10-H ) :   0.9243 
B(  3-C , 11-H ) :   0.9397 B( 12-C , 13-H ) :   0.9277 B( 12-C , 14-H ) :   0.9040 
B( 12-C , 15-O ) :   0.8452 B( 12-C , 16-C ) :   0.9035 B( 16-C , 17-C ) :   0.9082 
B( 16-C , 20-O ) :   0.8623 B( 16-C , 21-H ) :   0.9146 B( 17-C , 18-C ) :   0.9241 
B( 17-C , 22-O ) :   0.8874 B( 17-C , 23-H ) :   0.9257 B( 18-C , 19-C ) :   0.9439 
B( 18-C , 24-H ) :   0.9400 B( 18-C , 25-H ) :   0.8962 B( 19-C , 20-O ) :   0.8440 
B( 19-C , 26-H ) :   0.9331 B( 19-C , 27-H ) :   0.9369 B( 22-O , 28-H ) :   0.7949 


-------
TIMINGS
-------

Total SCF time: 0 days 0 hours 0 min 57 sec 

Total time                  ....      57.281 sec
Sum of individual times     ....      56.127 sec  ( 98.0%)

Fock matrix formation       ....      51.137 sec  ( 89.3%)
  XC integration            ....       8.271 sec  ( 16.2% of F)
    Basis function eval.    ....       2.333 sec  ( 28.2% of XC)
    Density eval.           ....       1.084 sec  ( 13.1% of XC)
    XC-Functional eval.     ....       0.407 sec  (  4.9% of XC)
    XC-Potential eval.      ....       1.533 sec  ( 18.5% of XC)
Diagonalization             ....       0.008 sec  (  0.0%)
Density matrix formation    ....       0.004 sec  (  0.0%)
Population analysis         ....       0.029 sec  (  0.1%)
Initial guess               ....       0.008 sec  (  0.0%)
Orbital Transformation      ....       0.000 sec  (  0.0%)
Orbital Orthonormalization  ....       0.005 sec  (  0.0%)
DIIS solution               ....       0.002 sec  (  0.0%)
SOSCF solution              ....       0.078 sec  (  0.1%)
Grid generation             ....       4.861 sec  (  8.5%)

-------------------------   --------------------
FINAL SINGLE POINT ENERGY      -652.853912471691
-------------------------   --------------------

                                *** OPTIMIZATION RUN DONE ***

                            ***************************************
                            *     ORCA property calculations      *
                            ***************************************

                                    ---------------------
                                    Active property flags
                                    ---------------------
   (+) Dipole Moment


------------------------------------------------------------------------------
                       ORCA ELECTRIC PROPERTIES CALCULATION
------------------------------------------------------------------------------

Dipole Moment Calculation                       ... on
Quadrupole Moment Calculation                   ... off
Polarizability Calculation                      ... off
GBWName                                         ... project_8048/ensemble_330_120.gbw
Electron density file                           ... project_8048/ensemble_330_120.scfp
The origin for moment calculation is the CENTER OF MASS  = (-42.427301, 51.164196 90.349244)

-------------
DIPOLE MOMENT
-------------
                                X             Y             Z
Electronic contribution:     -4.07644      -3.96425       0.81892
Nuclear contribution   :      4.97062       4.66650      -1.19402
                        -----------------------------------------
Total Dipole Moment    :      0.89418       0.70225      -0.37510
                        -----------------------------------------
Magnitude (a.u.)       :      1.19725
Magnitude (Debye)      :      3.04317



--------------------
Rotational spectrum 
--------------------
 
Rotational constants in cm-1:     0.043594     0.017904     0.016753 
Rotational constants in MHz :  1306.914347   536.744254   502.246775 

 Dipole components along the rotational axes: 
x,y,z [a.u.] :     0.864654     0.482540     0.673008 
x,y,z [Debye]:     2.197777     1.226519     1.710651 

 

Timings for individual modules:

Sum of individual times         ...     1627.439 sec (=  27.124 min)
GTO integral calculation        ...        6.219 sec (=   0.104 min)   0.4 %
SCF iterations                  ...     1138.700 sec (=  18.978 min)  70.0 %
SCF Gradient evaluation         ...      479.016 sec (=   7.984 min)  29.4 %
Geometry relaxation             ...        3.504 sec (=   0.058 min)   0.2 %
                             ****ORCA TERMINATED NORMALLY****
TOTAL RUN TIME: 0 days 0 hours 27 minutes 10 seconds 960 msec
