
                                 *****************
                                 * O   R   C   A *
                                 *****************

           --- An Ab Initio, DFT and Semiempirical electronic structure package ---

                  #######################################################
                  #                        -***-                        #
                  #          Department of theory and spectroscopy      #
                  #               Directorship: Frank Neese             #
                  #        Max Planck Institute fuer Kohlenforschung    #
                  #                Kaiser Wilhelm Platz 1               #
                  #                 D-45470 Muelheim/Ruhr               #
                  #                      Germany                        #
                  #                                                     #
                  #                  All rights reserved                #
                  #                        -***-                        #
                  #######################################################


                         Program Version 4.2.0 -  RELEASE  -


 With contributions from (in alphabetic order):
   Daniel Aravena         : Magnetic Suceptibility
   Michael Atanasov       : Ab Initio Ligand Field Theory (pilot matlab implementation)
   Alexander A. Auer      : GIAO ZORA, VPT2
   Ute Becker             : Parallelization
   Giovanni Bistoni       : ED, misc. LED, open-shell LED, HFLED
   Martin Brehm           : Molecular dynamics
   Dmytro Bykov           : SCF Hessian
   Vijay G. Chilkuri      : MRCI spin determinant printing, contributions to CSF-ICE
   Dipayan Datta          : RHF DLPNO-CCSD density
   Achintya Kumar Dutta   : EOM-CC, STEOM-CC
   Dmitry Ganyushin       : Spin-Orbit,Spin-Spin,Magnetic field MRCI
   Miquel Garcia          : C-PCM Hessian, Gaussian charge scheme
   Yang Guo               : DLPNO-NEVPT2, CIM, IAO-localization
   Andreas Hansen         : Spin unrestricted coupled pair/coupled cluster methods
   Benjamin Helmich-Paris : CASSCF linear response (MC-RPA)
   Lee Huntington         : MR-EOM, pCC
   Robert Izsak           : Overlap fitted RIJCOSX, COSX-SCS-MP3, EOM
   Christian Kollmar      : KDIIS, OOCD, Brueckner-CCSD(T), CCSD density
   Simone Kossmann        : Meta GGA functionals, TD-DFT gradient, OOMP2, MP2 Hessian
   Martin Krupicka        : AUTO-CI
   Lucas Lang             : DCDCAS
   Dagmar Lenk            : GEPOL surface, SMD
   Dimitrios Liakos       : Extrapolation schemes; Compound Job, initial MDCI parallelization
   Dimitrios Manganas     : Further ROCIS development; embedding schemes
   Dimitrios Pantazis     : SARC Basis sets
   Taras Petrenko         : DFT Hessian,TD-DFT gradient, ASA, ECA, R-Raman, ABS, FL, XAS/XES, NRVS
   Peter Pinski           : DLPNO-MP2, DLPNO-MP2 Gradient
   Christoph Reimann      : Effective Core Potentials
   Marius Retegan         : Local ZFS, SOC
   Christoph Riplinger    : Optimizer, TS searches, QM/MM, DLPNO-CCSD(T), (RO)-DLPNO pert. Triples
   Tobias Risthaus        : Range-separated hybrids, TD-DFT gradient, RPA, STAB
   Michael Roemelt        : Original ROCIS implementation
   Masaaki Saitow         : Open-shell DLPNO-CCSD energy and density
   Barbara Sandhoefer     : DKH picture change effects
   Avijit Sen             : IP-ROCIS
   Kantharuban Sivalingam : CASSCF convergence, NEVPT2, FIC-MRCI
   Bernardo de Souza      : ESD, SOC TD-DFT
   Georgi Stoychev        : AutoAux, RI-MP2 NMR
   Willem Van den Heuvel  : Paramagnetic NMR
   Boris Wezisla          : Elementary symmetry handling
   Frank Wennmohs         : Technical directorship


 We gratefully acknowledge several colleagues who have allowed us to
 interface, adapt or use parts of their codes:
   Stefan Grimme, W. Hujo, H. Kruse,             : VdW corrections, initial TS optimization,
                  C. Bannwarth                     DFT functionals, gCP, sTDA/sTD-DF
   Ed Valeev, F. Pavosevic, A. Kumar             : LibInt (2-el integral package), F12 methods
   Garnet Chan, S. Sharma, J. Yang, R. Olivares  : DMRG
   Ulf Ekstrom                                   : XCFun DFT Library
   Mihaly Kallay                                 : mrcc  (arbitrary order and MRCC methods)
   Andreas Klamt, Michael Diedenhofen            : otool_cosmo (COSMO solvation model)
   Jiri Pittner, Ondrej Demel                    : Mk-CCSD
   Frank Weinhold                                : gennbo (NPA and NBO analysis)
   Christopher J. Cramer and Donald G. Truhlar   : smd solvation model
   Lars Goerigk                                  : TD-DFT with DH, B97 family of functionals
   V. Asgeirsson, H. Jonsson                     : NEB implementation
   FAccTs GmbH                                   : IRC, NEB, NEB-TS, Multilevel, MM, QM/MM, CI optimization
   S Lehtola, MJT Oliveira, MAL Marques          : LibXC Library


 Your calculation uses the libint2 library for the computation of 2-el integrals
 For citations please refer to: http://libint.valeyev.net

 Your ORCA version has been built with support for libXC version: 4.2.3
 For citations please refer to: https://tddft.org/programs/libxc/

 This ORCA versions uses:
   CBLAS   interface :  Fast vector & matrix operations
   LAPACKE interface :  Fast linear algebra routines
   SCALAPACK package :  Parallel linear algebra routines


----- Orbital basis set information -----
Your calculation utilizes the basis: 6-31G
   H-He, Li-Ne : W. J. Hehre, R. Ditchfield and J.A. Pople, J. Chem. Phys. 56, 2257 (1972).
                 Note: He and Ne are unpublished basis sets taken from the Gaussian program.
                 Note: Li and B from J. D. Dill and J. A. Pople, J. Chem. Phys. 62, 2921 (1975).
   Na - Ar     : M. M. Francl, W. J. Pietro, W. J. Hehre, J. S. Binkley, M. S. Gordon, 
                 D. J. DeFrees and J. A. Pople, J. Chem. Phys. 77, 3654 (1982).
   K - Zn      : V. A. Rassolov, J. A. Pople, M. A. Ratner, and T. L. Windus, J. Chem. Phys. 109, 1223 (1998).

================================================================================
                                        WARNINGS
                       Please study these warnings very carefully!
================================================================================


WARNING: Geometry Optimization
  ===> : Switching off AutoStart
         For restart on a previous wavefunction, please use MOREAD

INFO   : the flag for use of LIBINT has been found!

================================================================================
                                       INPUT FILE
================================================================================
NAME = project_8053/ensemble_0_315.inp
|  1> # Test redundant internal optimization
|  2> #
|  3> ! RKS B3LYP  Opt TightSCF SmallPrint
|  4> 
|  5> %basis
|  6>         Basis "6-31G"
|  7> end
|  8> 
|  9> %geom
| 10> Constraints
| 11> { D 4  0  15  12  0.0   C } # D for Dihedral angle
| 12> { D 0  15  12  16  315.0   C } # D for Dihedral angle
| 13> { D 0  4  3  2   C } # D for Dihedral angle
| 14> { D 4  3  2  1   C } # D for Dihedral angle
| 15> { D 3  2  1  0   C } # D for Dihedral angle
| 16> { D 2  1  0  4   C } # D for Dihedral angle
| 17> { D 1  0  4  3   C } # D for Dihedral angle
| 18> { D 16  20  19  18   C } # D for Dihedral angle
| 19> { D 20  19  18  17   C } # D for Dihedral angle
| 20> { D 19  18  17  16   C } # D for Dihedral angle
| 21> { D 18  17  16  20   C } # D for Dihedral angle
| 22> { D 17  16  20  19   C } # D for Dihedral angle
| 23> { D 15  12  16  20   C } # D for Dihedral angle
| 24> end
| 25> end
| 26> 
| 27> 
| 28> #%pal 
| 29> #nprocs 8
| 30> #end
| 31> 
| 32> * xyz 0 1
| 33> C  -21.048   26.222   46.251
| 34> C  -20.361   27.558   45.944
| 35> C  -20.329   28.222   47.341
| 36> C  -20.110   27.022   48.296
| 37> O  -20.473   25.807   47.535
| 38> H  -20.833   25.428   45.533
| 39> H  -19.344   27.382   45.576
| 40> H  -20.898   28.157   45.201
| 41> H  -19.543   28.978   47.434
| 42> H  -21.289   28.710   47.548
| 43> H  -20.733   27.082   49.195
| 44> H  -19.064   26.913   48.597
| 45> C  -23.172   26.101   47.783
| 46> H  -22.943   26.939   48.453
| 47> H  -24.263   25.993   47.730
| 48> O  -22.586   26.394   46.375
| 49> C  -22.598   24.802   48.414
| 50> C  -23.281   24.482   49.748
| 51> C  -24.612   23.849   49.275
| 52> C  -24.200   23.081   47.995
| 53> O  -22.901   23.643   47.566
| 54> H  -21.511   24.881   48.470
| 55> H  -22.686   23.755   50.312
| 56> O  -23.495   25.735   50.640
| 57> H  -25.061   23.193   50.028
| 58> H  -25.339   24.634   49.038
| 59> H  -24.927   23.199   47.183
| 60> H  -24.045   22.014   48.179
| 61> H  -24.090   26.478   50.097
| 62> *
| 63> 
| 64>                          ****END OF INPUT****
================================================================================

                       *****************************
                       * Geometry Optimization Run *
                       *****************************

Geometry optimization settings:
Update method            Update   .... BFGS
Choice of coordinates    CoordSys .... Z-matrix Internals
Initial Hessian          InHess   .... Almoef's Model

Convergence Tolerances:
Energy Change            TolE     ....  5.0000e-06 Eh
Max. Gradient            TolMAXG  ....  3.0000e-04 Eh/bohr
RMS Gradient             TolRMSG  ....  1.0000e-04 Eh/bohr
Max. Displacement        TolMAXD  ....  4.0000e-03 bohr
RMS Displacement         TolRMSD  ....  2.0000e-03 bohr
Strict Convergence                ....  False
------------------------------------------------------------------------------
                        ORCA OPTIMIZATION COORDINATE SETUP
------------------------------------------------------------------------------

The optimization will be done in new redundant internal coordinates
Making redundant internal coordinates   ...  (new redundants) done
Evaluating the initial hessian          ...  (Almloef) done
Evaluating the coordinates              ...  done
Calculating the B-matrix                .... done
Calculating the G-matrix                .... done
Diagonalizing the G-matrix              .... done
Imposing constraints:
 Iter   0:  RMS(Cart)=    0.0002043755 RMS(Int)=    0.0000510007
 Iter   1:  RMS(Cart)=    0.0001002331 RMS(Int)=    0.0000276606
 Iter   2:  RMS(Cart)=    0.0000509331 RMS(Int)=    0.0000165054
 Iter   3:  RMS(Cart)=    0.0000271375 RMS(Int)=    0.0000107463
 Iter   4:  RMS(Cart)=    0.0000153103 RMS(Int)=    0.0000074976
 Iter   5:  RMS(Cart)=    0.0000091738 RMS(Int)=    0.0000055469
 Iter   6:  RMS(Cart)=    0.0000058078 RMS(Int)=    0.0000043480
 Iter   7:  RMS(Cart)=    0.0000038472 RMS(Int)=    0.0000036131
 Iter   8:  RMS(Cart)=    0.0000026425 RMS(Int)=    0.0000031649
 Iter   9:  RMS(Cart)=    0.0000018723 RMS(Int)=    0.0000028873
 Iter  10:  RMS(Cart)=    0.0000013674 RMS(Int)=    0.0000027066
 Iter  11:  RMS(Cart)=    0.0000010323 RMS(Int)=    0.0000025793
 Iter  12:  RMS(Cart)=    0.0000008090 RMS(Int)=    0.0000024809
 Iter  13:  RMS(Cart)=    0.0000006604 RMS(Int)=    0.0000023985
 Iter  14:  RMS(Cart)=    0.0000005613 RMS(Int)=    0.0000023252
 Iter  15:  RMS(Cart)=    0.0000004945 RMS(Int)=    0.0000022575
 Iter  16:  RMS(Cart)=    0.0000004485 RMS(Int)=    0.0000021937
 Iter  17:  RMS(Cart)=    0.0000004156 RMS(Int)=    0.0000021326
 Iter  18:  RMS(Cart)=    0.0000003911 RMS(Int)=    0.0000020739
 Iter  19:  RMS(Cart)=    0.0000003718 RMS(Int)=    0.0000020172
 Iter  20:  RMS(Cart)=    0.0000003560 RMS(Int)=    0.0000019624
 Iter  21:  RMS(Cart)=    0.0000003426 RMS(Int)=    0.0000019093
 Iter  22:  RMS(Cart)=    0.0000003307 RMS(Int)=    0.0000018578
 Iter  23:  RMS(Cart)=    0.0000003199 RMS(Int)=    0.0000018079
 Iter  24:  RMS(Cart)=    0.0000003101 RMS(Int)=    0.0000017595
 Iter  25:  RMS(Cart)=    0.0000003008 RMS(Int)=    0.0000017126
 Iter  26:  RMS(Cart)=    0.0000002921 RMS(Int)=    0.0000016671
 Iter  27:  RMS(Cart)=    0.0000002838 RMS(Int)=    0.0000016230
 Iter  28:  RMS(Cart)=    0.0000002758 RMS(Int)=    0.0000015802
 Iter  29:  RMS(Cart)=    0.0000002682 RMS(Int)=    0.0000015387
 Iter  30:  RMS(Cart)=    0.0000002609 RMS(Int)=    0.0000014984
 Iter  31:  RMS(Cart)=    0.0000002538 RMS(Int)=    0.0000014593
 Iter  32:  RMS(Cart)=    0.0000002469 RMS(Int)=    0.0000014214
 Iter  33:  RMS(Cart)=    0.0000002403 RMS(Int)=    0.0000013846
 Iter  34:  RMS(Cart)=    0.0000002339 RMS(Int)=    0.0000013489
 Iter  35:  RMS(Cart)=    0.0000002276 RMS(Int)=    0.0000013142
 Iter  36:  RMS(Cart)=    0.0000002216 RMS(Int)=    0.0000012806
 Iter  37:  RMS(Cart)=    0.0000002157 RMS(Int)=    0.0000012479
 Iter  38:  RMS(Cart)=    0.0000002100 RMS(Int)=    0.0000012162
 Iter  39:  RMS(Cart)=    0.0000002045 RMS(Int)=    0.0000011854
 Iter  40:  RMS(Cart)=    0.0000001991 RMS(Int)=    0.0000011555
 Iter  41:  RMS(Cart)=    0.0000001939 RMS(Int)=    0.0000011265
 Iter  42:  RMS(Cart)=    0.0000001889 RMS(Int)=    0.0000010983
 Iter  43:  RMS(Cart)=    0.0000001840 RMS(Int)=    0.0000010709
 Iter  44:  RMS(Cart)=    0.0000001792 RMS(Int)=    0.0000010443
 Iter  45:  RMS(Cart)=    0.0000001746 RMS(Int)=    0.0000010185
 Iter  46:  RMS(Cart)=    0.0000001701 RMS(Int)=    0.0000009934
 Iter  47:  RMS(Cart)=    0.0000001657 RMS(Int)=    0.0000009690
 Iter  48:  RMS(Cart)=    0.0000001614 RMS(Int)=    0.0000009453
 Iter  49:  RMS(Cart)=    0.0000001573 RMS(Int)=    0.0000009223
 Iter  50:  RMS(Cart)=    0.0000001533 RMS(Int)=    0.0000009000
 Iter  51:  RMS(Cart)=    0.0000001494 RMS(Int)=    0.0000008782
 Iter  52:  RMS(Cart)=    0.0000001456 RMS(Int)=    0.0000008571
 Iter  53:  RMS(Cart)=    0.0000001419 RMS(Int)=    0.0000008366
 Iter  54:  RMS(Cart)=    0.0000001384 RMS(Int)=    0.0000008166
 Iter  55:  RMS(Cart)=    0.0000001349 RMS(Int)=    0.0000007972
 Iter  56:  RMS(Cart)=    0.0000001315 RMS(Int)=    0.0000007784
 Iter  57:  RMS(Cart)=    0.0000001282 RMS(Int)=    0.0000007600
 Iter  58:  RMS(Cart)=    0.0000001250 RMS(Int)=    0.0000007422
 Iter  59:  RMS(Cart)=    0.0000001219 RMS(Int)=    0.0000007249
 Iter  60:  RMS(Cart)=    0.0000001189 RMS(Int)=    0.0000007080
 Iter  61:  RMS(Cart)=    0.0000001159 RMS(Int)=    0.0000006916
 Iter  62:  RMS(Cart)=    0.0000001131 RMS(Int)=    0.0000006757
 Iter  63:  RMS(Cart)=    0.0000001103 RMS(Int)=    0.0000006602
 Iter  64:  RMS(Cart)=    0.0000001076 RMS(Int)=    0.0000006451
 Iter  65:  RMS(Cart)=    0.0000001049 RMS(Int)=    0.0000006304
 Iter  66:  RMS(Cart)=    0.0000001024 RMS(Int)=    0.0000006161
 Iter  67:  RMS(Cart)=    0.0000000999 RMS(Int)=    0.0000006022
 Iter  68:  RMS(Cart)=    0.0000000974 RMS(Int)=    0.0000005887
 Iter  69:  RMS(Cart)=    0.0000000951 RMS(Int)=    0.0000005756
 Iter  70:  RMS(Cart)=    0.0000000928 RMS(Int)=    0.0000005628
 Iter  71:  RMS(Cart)=    0.0000000905 RMS(Int)=    0.0000005503
 Iter  72:  RMS(Cart)=    0.0000000884 RMS(Int)=    0.0000005382
 Iter  73:  RMS(Cart)=    0.0000000862 RMS(Int)=    0.0000005264
 Iter  74:  RMS(Cart)=    0.0000000842 RMS(Int)=    0.0000005149
 Iter  75:  RMS(Cart)=    0.0000000822 RMS(Int)=    0.0000005037
 Iter  76:  RMS(Cart)=    0.0000000802 RMS(Int)=    0.0000004928
 Iter  77:  RMS(Cart)=    0.0000000783 RMS(Int)=    0.0000004822
 Iter  78:  RMS(Cart)=    0.0000000765 RMS(Int)=    0.0000004718
 Iter  79:  RMS(Cart)=    0.0000000747 RMS(Int)=    0.0000004618
 Iter  80:  RMS(Cart)=    0.0000000729 RMS(Int)=    0.0000004520
 Iter  81:  RMS(Cart)=    0.0000000712 RMS(Int)=    0.0000004424
 Iter  82:  RMS(Cart)=    0.0000000695 RMS(Int)=    0.0000004331
 Iter  83:  RMS(Cart)=    0.0000000679 RMS(Int)=    0.0000004241
 Iter  84:  RMS(Cart)=    0.0000000663 RMS(Int)=    0.0000004153
 Iter  85:  RMS(Cart)=    0.0000000648 RMS(Int)=    0.0000004067
 Iter  86:  RMS(Cart)=    0.0000000633 RMS(Int)=    0.0000003983
 Iter  87:  RMS(Cart)=    0.0000000618 RMS(Int)=    0.0000003901
 Iter  88:  RMS(Cart)=    0.0000000604 RMS(Int)=    0.0000003822
 Iter  89:  RMS(Cart)=    0.0000000590 RMS(Int)=    0.0000003744
 Iter  90:  RMS(Cart)=    0.0000000577 RMS(Int)=    0.0000003669
 Iter  91:  RMS(Cart)=    0.0000000564 RMS(Int)=    0.0000003595
 Iter  92:  RMS(Cart)=    0.0000000551 RMS(Int)=    0.0000003523
 Iter  93:  RMS(Cart)=    0.0000000538 RMS(Int)=    0.0000003453
 Iter  94:  RMS(Cart)=    0.0000000526 RMS(Int)=    0.0000003385
 Iter  95:  RMS(Cart)=    0.0000000514 RMS(Int)=    0.0000003318
 Iter  96:  RMS(Cart)=    0.0000000503 RMS(Int)=    0.0000003253
 Iter  97:  RMS(Cart)=    0.0000000491 RMS(Int)=    0.0000003190
 Iter  98:  RMS(Cart)=    0.0000000480 RMS(Int)=    0.0000003128
 Iter  99:  RMS(Cart)=    0.0000000470 RMS(Int)=    0.0000003068
 RMS(Cart) too big - taking linear step, building new B-matrix and trying again
Imposing constraints:
 Iter   0:  RMS(Cart)=    0.0001002301 RMS(Int)=    0.0000276608
 Iter   1:  RMS(Cart)=    0.0000509315 RMS(Int)=    0.0000165057
 Iter   2:  RMS(Cart)=    0.0000271368 RMS(Int)=    0.0000107466
 Iter   3:  RMS(Cart)=    0.0000153100 RMS(Int)=    0.0000074978
 Iter   4:  RMS(Cart)=    0.0000091738 RMS(Int)=    0.0000055470
 Iter   5:  RMS(Cart)=    0.0000058079 RMS(Int)=    0.0000043478
 Iter   6:  RMS(Cart)=    0.0000038472 RMS(Int)=    0.0000036128
 Iter   7:  RMS(Cart)=    0.0000026426 RMS(Int)=    0.0000031645
 Iter   8:  RMS(Cart)=    0.0000018723 RMS(Int)=    0.0000028868
 Iter   9:  RMS(Cart)=    0.0000013674 RMS(Int)=    0.0000027061
 Iter  10:  RMS(Cart)=    0.0000010323 RMS(Int)=    0.0000025788
 Iter  11:  RMS(Cart)=    0.0000008090 RMS(Int)=    0.0000024804
 Iter  12:  RMS(Cart)=    0.0000006604 RMS(Int)=    0.0000023980
 Iter  13:  RMS(Cart)=    0.0000005613 RMS(Int)=    0.0000023247
 Iter  14:  RMS(Cart)=    0.0000004945 RMS(Int)=    0.0000022571
 Iter  15:  RMS(Cart)=    0.0000004485 RMS(Int)=    0.0000021932
 Iter  16:  RMS(Cart)=    0.0000004156 RMS(Int)=    0.0000021322
 Iter  17:  RMS(Cart)=    0.0000003910 RMS(Int)=    0.0000020735
 Iter  18:  RMS(Cart)=    0.0000003718 RMS(Int)=    0.0000020168
 Iter  19:  RMS(Cart)=    0.0000003560 RMS(Int)=    0.0000019620
 Iter  20:  RMS(Cart)=    0.0000003425 RMS(Int)=    0.0000019089
 Iter  21:  RMS(Cart)=    0.0000003306 RMS(Int)=    0.0000018574
 Iter  22:  RMS(Cart)=    0.0000003199 RMS(Int)=    0.0000018075
 Iter  23:  RMS(Cart)=    0.0000003100 RMS(Int)=    0.0000017592
 Iter  24:  RMS(Cart)=    0.0000003008 RMS(Int)=    0.0000017123
 Iter  25:  RMS(Cart)=    0.0000002920 RMS(Int)=    0.0000016668
 Iter  26:  RMS(Cart)=    0.0000002837 RMS(Int)=    0.0000016227
 Iter  27:  RMS(Cart)=    0.0000002758 RMS(Int)=    0.0000015799
 Iter  28:  RMS(Cart)=    0.0000002682 RMS(Int)=    0.0000015384
 Iter  29:  RMS(Cart)=    0.0000002608 RMS(Int)=    0.0000014981
 Iter  30:  RMS(Cart)=    0.0000002537 RMS(Int)=    0.0000014591
 Iter  31:  RMS(Cart)=    0.0000002469 RMS(Int)=    0.0000014211
 Iter  32:  RMS(Cart)=    0.0000002402 RMS(Int)=    0.0000013843
 Iter  33:  RMS(Cart)=    0.0000002338 RMS(Int)=    0.0000013486
 Iter  34:  RMS(Cart)=    0.0000002276 RMS(Int)=    0.0000013140
 Iter  35:  RMS(Cart)=    0.0000002215 RMS(Int)=    0.0000012803
 Iter  36:  RMS(Cart)=    0.0000002157 RMS(Int)=    0.0000012477
 Iter  37:  RMS(Cart)=    0.0000002100 RMS(Int)=    0.0000012160
 Iter  38:  RMS(Cart)=    0.0000002045 RMS(Int)=    0.0000011852
 Iter  39:  RMS(Cart)=    0.0000001991 RMS(Int)=    0.0000011553
 Iter  40:  RMS(Cart)=    0.0000001939 RMS(Int)=    0.0000011263
 Iter  41:  RMS(Cart)=    0.0000001888 RMS(Int)=    0.0000010981
 Iter  42:  RMS(Cart)=    0.0000001839 RMS(Int)=    0.0000010707
 Iter  43:  RMS(Cart)=    0.0000001792 RMS(Int)=    0.0000010442
 Iter  44:  RMS(Cart)=    0.0000001745 RMS(Int)=    0.0000010183
 Iter  45:  RMS(Cart)=    0.0000001700 RMS(Int)=    0.0000009933
CONVERGED
Small eigenvalue found = 6.435e-03
Small eigenvalue found = 1.214e-02
Small eigenvalue found = 1.680e-02
The first mode is                       ....   91
The number of degrees of freedom        ....   81
Storing new coordinates                 .... done

    -----------------------------------------------------------------
                    Redundant Internal Coordinates


    -----------------------------------------------------------------
         Definition                    Initial Value    Approx d2E/dq
    -----------------------------------------------------------------
      1. B(C   1,C   0)                  1.5333         0.369027   
      2. B(C   2,C   1)                  1.5471         0.350825   
      3. B(C   3,C   2)                  1.5492         0.348147   
      4. B(O   4,C   0)                  1.4668         0.422031   
      5. B(O   4,C   3)                  1.4789         0.403699   
      6. B(H   5,C   0)                  1.0919         0.357632   
      7. B(H   6,C   1)                  1.0958         0.352561   
      8. B(H   7,C   1)                  1.0951         0.353431   
      9. B(H   8,C   2)                  1.0945         0.354166   
     10. B(H   9,C   2)                  1.0966         0.351438   
     11. B(H  10,C   3)                  1.0954         0.353010   
     12. B(H  11,C   3)                  1.0939         0.354989   
     13. B(H  13,C  12)                  1.0971         0.350855   
     14. B(H  14,C  12)                  1.0976         0.350169   
     15. B(O  15,C   0)                  1.5525         0.307993   
     16. B(O  15,C  12)                  1.5530         0.307518   
     17. B(C  16,C  12)                  1.5540         0.341999   
     18. B(C  17,C  16)                  1.5325         0.370209   
     19. B(C  18,C  17)                  1.5479         0.349806   
     20. B(C  19,C  18)                  1.5485         0.348981   
     21. B(O  20,C  16)                  1.4677         0.420613   
     22. B(O  20,C  19)                  1.4789         0.403613   
     23. B(H  21,C  16)                  1.0913         0.358378   
     24. B(H  22,C  17)                  1.0957         0.352584   
     25. B(O  23,C  17)                  1.5529         0.307605   
     26. B(H  24,C  18)                  1.0950         0.353593   
     27. B(H  25,C  18)                  1.0959         0.352423   
     28. B(H  26,C  19)                  1.0963         0.351907   
     29. B(H  27,C  19)                  1.0938         0.355125   
     30. B(H  28,O  23)                  1.0959         0.315646   
     31. A(O   4,C   0,H   5)          107.0214         0.328541   
     32. A(C   1,C   0,O  15)          111.3021         0.348740   
     33. A(C   1,C   0,O   4)          104.2486         0.367935   
     34. A(O   4,C   0,O  15)          110.4734         0.354548   
     35. A(C   1,C   0,H   5)          114.4378         0.323302   
     36. A(H   5,C   0,O  15)          109.1576         0.312058   
     37. A(C   0,C   1,C   2)          101.6796         0.358729   
     38. A(C   2,C   1,H   7)          112.8319         0.320016   
     39. A(C   2,C   1,H   6)          110.6708         0.319888   
     40. A(C   0,C   1,H   6)          110.0677         0.322546   
     41. A(H   6,C   1,H   7)          108.3681         0.289027   
     42. A(C   0,C   1,H   7)          113.1243         0.322677   
     43. A(C   1,C   2,H   8)          112.8318         0.320125   
     44. A(C   1,C   2,C   3)          103.1268         0.355196   
     45. A(C   1,C   2,H   9)          110.0800         0.319721   
     46. A(C   3,C   2,H   9)          110.6152         0.319321   
     47. A(C   3,C   2,H   8)          112.4038         0.319725   
     48. A(H   8,C   2,H   9)          107.7728         0.288977   
     49. A(O   4,C   3,H  10)          109.1298         0.325449   
     50. A(C   2,C   3,H  10)          112.5253         0.319554   
     51. A(C   2,C   3,O   4)          106.5275         0.361529   
     52. A(O   4,C   3,H  11)          107.1237         0.325748   
     53. A(H  10,C   3,H  11)          108.8728         0.289284   
     54. A(C   2,C   3,H  11)          112.4566         0.319846   
     55. A(C   0,O   4,C   3)          108.3146         0.371320   
     56. A(H  14,C  12,C  16)          107.7194         0.318206   
     57. A(H  13,C  12,H  14)          108.1874         0.288389   
     58. A(H  13,C  12,O  15)          109.3168         0.311016   
     59. A(H  14,C  12,O  15)          110.4803         0.310918   
     60. A(O  15,C  12,C  16)          112.7348         0.344218   
     61. A(H  13,C  12,C  16)          108.2737         0.318308   
     62. A(C   0,O  15,C  12)          115.1707         0.336188   
     63. A(C  12,C  16,C  17)          111.3071         0.357372   
     64. A(C  12,C  16,O  20)          110.4398         0.362965   
     65. A(C  17,C  16,O  20)          104.2428         0.367925   
     66. A(C  12,C  16,H  21)          109.1620         0.319412   
     67. A(C  17,C  16,H  21)          114.4797         0.323583   
     68. A(O  20,C  16,H  21)          107.0050         0.328472   
     69. A(C  16,C  17,C  18)          101.6910         0.358746   
     70. A(C  16,C  17,H  22)          110.1567         0.322719   
     71. A(C  18,C  17,H  22)          110.6640         0.319739   
     72. A(C  16,C  17,O  23)          113.1383         0.348854   
     73. A(C  18,C  17,O  23)          112.7675         0.345542   
     74. A(H  22,C  17,O  23)          108.3318         0.311278   
     75. A(C  17,C  18,C  19)          103.0980         0.355165   
     76. A(C  17,C  18,H  24)          112.7965         0.319888   
     77. A(C  19,C  18,H  24)          112.3592         0.319765   
     78. A(C  17,C  18,H  25)          110.0961         0.319715   
     79. A(C  19,C  18,H  25)          110.6713         0.319592   
     80. A(H  24,C  18,H  25)          107.8092         0.289030   
     81. A(C  18,C  19,O  20)          106.5586         0.361664   
     82. A(C  18,C  19,H  26)          112.4841         0.319516   
     83. A(O  20,C  19,H  26)          109.0695         0.325270   
     84. A(C  18,C  19,H  27)          112.4860         0.319991   
     85. A(O  20,C  19,H  27)          107.1589         0.325757   
     86. A(H  26,C  19,H  27)          108.8796         0.289159   
     87. A(C  16,O  20,C  19)          108.2890         0.371092   
     88. A(C  17,O  23,H  28)          109.7106         0.303253   
     89. D(H   7,C   1,C   0,H   5)     82.1518         0.010890   
     90. D(C   2,C   1,C   0,O  15)     79.0869         0.010890   
     91. D(H   7,C   1,C   0,O  15)    -42.1868         0.010890   
     92. D(H   6,C   1,C   0,O   4)     77.3259         0.010890   
     93. D(H   6,C   1,C   0,O  15)   -163.5727         0.010890   
     94. D(H   6,C   1,C   0,H   5)    -39.2341         0.010890   
     95. D(H   7,C   1,C   0,O   4)   -161.2882         0.010890   
     96. D(C   2,C   1,C   0,O   4)    -40.0145         0.010890 C 
     97. D(C   2,C   1,C   0,H   5)   -156.5745         0.010890   
     98. D(H   9,C   2,C   1,H   6)    160.0776         0.009912   
     99. D(H   8,C   2,C   1,C   0)    156.5479         0.009912   
    100. D(H   8,C   2,C   1,H   6)     39.6446         0.009912   
    101. D(C   3,C   2,C   1,C   0)     35.0270         0.009912 C 
    102. D(H   8,C   2,C   1,H   7)    -81.9752         0.009912   
    103. D(H   9,C   2,C   1,C   0)    -83.0191         0.009912   
    104. D(C   3,C   2,C   1,H   6)    -81.8763         0.009912   
    105. D(H   9,C   2,C   1,H   7)     38.4578         0.009912   
    106. D(C   3,C   2,C   1,H   7)    156.5039         0.009912   
    107. D(H  11,C   3,C   2,H   9)   -143.4628         0.009774   
    108. D(O   4,C   3,C   2,H   8)   -140.0066         0.009774   
    109. D(O   4,C   3,C   2,H   9)     99.4739         0.009774   
    110. D(H  10,C   3,C   2,C   1)   -137.7432         0.009774   
    111. D(H  10,C   3,C   2,H   8)    100.4468         0.009774   
    112. D(H  10,C   3,C   2,H   9)    -20.0727         0.009774   
    113. D(H  11,C   3,C   2,C   1)     98.8667         0.009774   
    114. D(O   4,C   3,C   2,C   1)    -18.1967         0.009774 C 
    115. D(H  11,C   3,C   2,H   8)    -22.9433         0.009774   
    116. D(C   3,O   4,C   0,C   1)     29.5918         0.014035 C 
    117. D(C   3,O   4,C   0,H   5)    151.2015         0.014035   
    118. D(C   3,O   4,C   0,O  15)    -90.0713         0.014035   
    119. D(C   0,O   4,C   3,C   2)     -6.8732         0.012866 C 
    120. D(C   0,O   4,C   3,H  10)    114.8547         0.012866   
    121. D(C   0,O   4,C   3,H  11)   -127.4272         0.012866   
    122. D(C   0,O  15,C  12,C  16)    -45.0000         0.007772 C 
    123. D(C  12,O  15,C   0,O   4)      0.0000         0.007793 C 
    124. D(C  12,O  15,C   0,H   5)    117.4188         0.007793   
    125. D(C   0,O  15,C  12,H  14)   -165.5814         0.007772   
    126. D(C   0,O  15,C  12,H  13)     75.4728         0.007772   
    127. D(C  12,O  15,C   0,C   1)   -115.3136         0.007793   
    128. D(C  17,C  16,C  12,H  13)     63.6260         0.009460   
    129. D(H  21,C  16,C  12,H  14)    179.5160         0.009460   
    130. D(C  17,C  16,C  12,O  15)   -175.3049         0.009460   
    131. D(O  20,C  16,C  12,H  13)    178.9151         0.009460   
    132. D(O  20,C  16,C  12,H  14)     62.1341         0.009460   
    133. D(O  20,C  16,C  12,O  15)    -60.0159         0.009460 C 
    134. D(C  17,C  16,C  12,H  14)    -53.1549         0.009460   
    135. D(H  21,C  16,C  12,H  13)    -63.7031         0.009460   
    136. D(H  21,C  16,C  12,O  15)     57.3660         0.009460   
    137. D(C  18,C  17,C  16,C  12)     79.0377         0.010955   
    138. D(C  18,C  17,C  16,O  20)    -40.0229         0.010955 C 
    139. D(C  18,C  17,C  16,H  21)   -156.5808         0.010955   
    140. D(H  22,C  17,C  16,C  12)   -163.5862         0.010955   
    141. D(H  22,C  17,C  16,O  20)     77.3532         0.010955   
    142. D(H  22,C  17,C  16,H  21)    -39.2047         0.010955   
    143. D(O  23,C  17,C  16,C  12)    -42.1730         0.010955   
    144. D(O  23,C  17,C  16,O  20)   -161.2336         0.010955   
    145. D(O  23,C  17,C  16,H  21)     82.2085         0.010955   
    146. D(H  24,C  18,C  17,O  23)    -82.0163         0.009860   
    147. D(C  19,C  18,C  17,H  22)    -81.9235         0.009860   
    148. D(C  19,C  18,C  17,O  23)    156.5537         0.009860   
    149. D(H  24,C  18,C  17,C  16)    156.5152         0.009860   
    150. D(C  19,C  18,C  17,C  16)     35.0852         0.009860 C 
    151. D(H  24,C  18,C  17,H  22)     39.5065         0.009860   
    152. D(H  25,C  18,C  17,C  16)    -83.0178         0.009860   
    153. D(H  25,C  18,C  17,H  22)    159.9734         0.009860   
    154. D(H  25,C  18,C  17,O  23)     38.4507         0.009860   
    155. D(H  27,C  19,C  18,H  25)   -143.4156         0.009817   
    156. D(O  20,C  19,C  18,H  24)   -139.9819         0.009817   
    157. D(O  20,C  19,C  18,H  25)     99.4433         0.009817   
    158. D(H  26,C  19,C  18,C  17)   -137.7250         0.009817   
    159. D(H  26,C  19,C  18,H  24)    100.5492         0.009817   
    160. D(H  26,C  19,C  18,H  25)    -20.0256         0.009817   
    161. D(H  27,C  19,C  18,C  17)     98.8850         0.009817   
    162. D(O  20,C  19,C  18,C  17)    -18.2561         0.009817 C 
    163. D(H  27,C  19,C  18,H  24)    -22.8409         0.009817   
    164. D(C  19,O  20,C  16,C  12)    -90.0899         0.013942   
    165. D(C  19,O  20,C  16,C  17)     29.5588         0.013942 C 
    166. D(C  19,O  20,C  16,H  21)    151.2059         0.013942   
    167. D(C  16,O  20,C  19,C  18)     -6.7978         0.012860 C 
    168. D(C  16,O  20,C  19,H  26)    114.8651         0.012860   
    169. D(C  16,O  20,C  19,H  27)   -127.4213         0.012860   
    170. D(H  28,O  23,C  17,C  16)     57.6318         0.007776   
    171. D(H  28,O  23,C  17,C  18)    -57.0972         0.007776   
    172. D(H  28,O  23,C  17,H  22)   -179.9324         0.007776   
    -----------------------------------------------------------------

Number of atoms                         .... 29
Number of degrees of freedom            .... 172

Time needed for optimization step       :    15.28 sec

         *************************************************************
         *                GEOMETRY OPTIMIZATION CYCLE   1            *
         *************************************************************
---------------------------------
CARTESIAN COORDINATES (ANGSTROEM)
---------------------------------
  C    -21.047765   26.221962   46.251140
  C    -20.360959   27.558021   45.943934
  C    -20.329076   28.222265   47.340825
  C    -20.109907   27.022451   48.296018
  O    -20.472713   25.807277   47.535216
  H    -20.832635   25.427894   45.533254
  H    -19.343929   27.382111   45.575973
  H    -20.898042   28.156820   45.200833
  H    -19.543191   28.978399   47.433710
  H    -21.289151   28.710155   47.547734
  H    -20.732925   27.082502   49.195002
  H    -19.063893   26.913657   48.597046
  C    -23.171783   26.100819   47.783104
  H    -22.942715   26.938824   48.453074
  H    -24.262790   25.992866   47.730156
  O    -22.585788   26.393789   46.375096
  C    -22.598009   24.801667   48.413997
  C    -23.281043   24.481719   49.747996
  C    -24.612187   23.849016   49.274997
  C    -24.200371   23.081013   47.994941
  O    -22.901273   23.642777   47.565942
  H    -21.510993   24.880450   48.469984
  H    -22.686172   23.754566   50.311936
  O    -23.494771   25.734707   50.640077
  H    -25.061299   23.193061   50.027970
  H    -25.339036   24.634176   49.038065
  H    -24.927368   23.199207   47.182966
  H    -24.045579   22.013971   48.178873
  H    -24.089637   26.477858   50.097137

----------------------------
CARTESIAN COORDINATES (A.U.)
----------------------------
  NO LB      ZA    FRAG     MASS         X           Y           Z
   0 C     6.0000    0    12.011  -39.774512   49.552326   87.401989
   1 C     6.0000    0    12.011  -38.476636   52.077112   86.821454
   2 C     6.0000    0    12.011  -38.416386   53.332351   89.461194
   3 C     6.0000    0    12.011  -38.002216   51.065032   91.266247
   4 O     8.0000    0    15.999  -38.687821   48.768685   89.828540
   5 H     1.0000    0     1.008  -39.367975   48.051756   86.045380
   6 H     1.0000    0     1.008  -36.554729   51.744691   86.126107
   7 H     1.0000    0     1.008  -39.491576   53.208678   85.417195
   8 H     1.0000    0     1.008  -36.931279   54.761238   89.636721
   9 H     1.0000    0     1.008  -40.230665   54.254331   89.852195
  10 H     1.0000    0     1.008  -39.179550   51.178511   92.965081
  11 H     1.0000    0     1.008  -36.025537   50.859442   91.835108
  12 C     6.0000    0    12.011  -43.788324   49.323400   90.296981
  13 H     1.0000    0     1.008  -43.355448   50.907001   91.563040
  14 H     1.0000    0     1.008  -45.850029   49.119399   90.196924
  15 O     8.0000    0    15.999  -42.680954   49.877033   87.636231
  16 C     6.0000    0    12.011  -42.704049   46.868358   91.489195
  17 C     6.0000    0    12.011  -43.994795   46.263744   94.010089
  18 C     6.0000    0    12.011  -46.510292   45.068109   93.116250
  19 C     6.0000    0    12.011  -45.732074   43.616794   90.697295
  20 O     8.0000    0    15.999  -43.277133   44.678374   89.886604
  21 H     1.0000    0     1.008  -40.649885   47.017237   91.594996
  22 H     1.0000    0     1.008  -42.870653   44.889624   95.075781
  23 O     8.0000    0    15.999  -44.398683   48.631549   95.695878
  24 H     1.0000    0     1.008  -47.358991   43.828533   94.539162
  25 H     1.0000    0     1.008  -47.883838   46.551846   92.668514
  26 H     1.0000    0     1.008  -47.105898   43.840148   89.162885
  27 H     1.0000    0     1.008  -45.439559   41.600376   91.044875
  28 H     1.0000    0     1.008  -45.522817   50.035901   94.669870

--------------------------------
INTERNAL COORDINATES (ANGSTROEM)
--------------------------------
 C      0   0   0     0.000000000000     0.00000000     0.00000000
 C      1   0   0     1.533334275362     0.00000000     0.00000000
 C      2   1   0     1.547103422529   101.67907390     0.00000000
 C      3   2   1     1.549188819996   103.12737509    35.02687180
 O      1   2   3     1.466801281701   104.24948604   319.98542309
 H      1   2   3     1.091872245274   114.43876658   203.42640133
 H      2   1   3     1.095759553917   110.06782188   117.34000099
 H      2   1   3     1.095088580892   113.12442239   238.72597460
 H      3   2   1     1.094523183857   112.83161078   156.54780790
 H      3   2   1     1.096628013503   110.07982737   276.98070077
 H      4   3   2     1.095413164062   112.52534669   222.25678475
 H      4   3   2     1.093891219455   112.45670684    98.86663270
 C      1   2   3     2.621648527168   121.34625191    44.51218039
 H     13   1   2     1.097080215846    98.77247397   328.04270806
 H     13   1   2     1.097612864356   141.40918423   102.44523384
 O      1   2   3     1.552547583812   111.30349807    79.08752829
 C     13   1   2     1.554039253044    88.65957820   219.76623849
 C     17  13   1     1.532463702670   111.30790234   162.42474097
 C     18  17  13     1.547895022280   101.69064384    79.03815810
 C     19  18  17     1.548537374428   103.09840156    35.08514069
 O     17  13   1     1.467717275227   110.43957416   277.71484183
 H     17  13   1     1.091304723714   109.16129918    35.09508704
 H     18  17  13     1.095741757897   110.15679977   196.41403332
 O     18  17  13     1.552890530591   113.13838824   317.82727124
 H     19  18  17     1.094963926346   112.79640684   156.51515748
 H     19  18  17     1.095866323965   110.09596668   276.98208152
 H     20  19  18     1.096265022702   112.48413843   222.27505995
 H     20  19  18     1.093786999374   112.48602365    98.88494956
 H     24  18  17     1.095866323965   109.71064394    57.63166482

---------------------------
INTERNAL COORDINATES (A.U.)
---------------------------
 C      0   0   0     0.000000000000     0.00000000     0.00000000
 C      1   0   0     2.897581852189     0.00000000     0.00000000
 C      2   1   0     2.923601769431   101.67907390     0.00000000
 C      3   2   1     2.927542599525   103.12737509    35.02687180
 O      1   2   3     2.771852715300   104.24948604   319.98542309
 H      1   2   3     2.063339516798   114.43876658   203.42640133
 H      2   1   3     2.070685465531   110.06782188   117.34000099
 H      2   1   3     2.069417510270   113.12442239   238.72597460
 H      3   2   1     2.068349064717   112.83161078   156.54780790
 H      3   2   1     2.072326616307   110.07982737   276.98070077
 H      4   3   2     2.070030883569   112.52534669   222.25678475
 H      4   3   2     2.067154825070   112.45670684    98.86663270
 C      1   2   3     4.954197735745   121.34625191    44.51218039
 H     13   1   2     2.073181154892    98.77247397   328.04270806
 H     13   1   2     2.074187714702   141.40918423   102.44523384
 O      1   2   3     2.933889743286   111.30349807    79.08752829
 C     13   1   2     2.936708589616    88.65957820   219.76623849
 C     17  13   1     2.895936708221   111.30790234   162.42474097
 C     18  17  13     2.925097676170   101.69064384    79.03815810
 C     19  18  17     2.926311545810   103.09840156    35.08514069
 O     17  13   1     2.773583692204   110.43957416   277.71484183
 H     17  13   1     2.062267056474   109.16129918    35.09508704
 H     18  17  13     2.070651835927   110.15679977   196.41403332
 O     18  17  13     2.934537818777   113.13838824   317.82727124
 H     19  18  17     2.069181947318   112.79640684   156.51515748
 H     19  18  17     2.070887231680   110.09596668   276.98208152
 H     20  19  18     2.071640663104   112.48413843   222.27505995
 H     20  19  18     2.066957877661   112.48602365    98.88494956
 H     24  18  17     2.070887231680   109.71064394    57.63166482

---------------------
BASIS SET INFORMATION
---------------------
There are 3 groups of distinct atoms

 Group   1 Type C   : 10s4p contracted to 3s2p pattern {631/31}
 Group   2 Type O   : 10s4p contracted to 3s2p pattern {631/31}
 Group   3 Type H   : 4s contracted to 2s pattern {31}

Atom   0C    basis set group =>   1
Atom   1C    basis set group =>   1
Atom   2C    basis set group =>   1
Atom   3C    basis set group =>   1
Atom   4O    basis set group =>   2
Atom   5H    basis set group =>   3
Atom   6H    basis set group =>   3
Atom   7H    basis set group =>   3
Atom   8H    basis set group =>   3
Atom   9H    basis set group =>   3
Atom  10H    basis set group =>   3
Atom  11H    basis set group =>   3
Atom  12C    basis set group =>   1
Atom  13H    basis set group =>   3
Atom  14H    basis set group =>   3
Atom  15O    basis set group =>   2
Atom  16C    basis set group =>   1
Atom  17C    basis set group =>   1
Atom  18C    basis set group =>   1
Atom  19C    basis set group =>   1
Atom  20O    basis set group =>   2
Atom  21H    basis set group =>   3
Atom  22H    basis set group =>   3
Atom  23O    basis set group =>   2
Atom  24H    basis set group =>   3
Atom  25H    basis set group =>   3
Atom  26H    basis set group =>   3
Atom  27H    basis set group =>   3
Atom  28H    basis set group =>   3
------------------------------------------------------------------------------
                           ORCA GTO INTEGRAL CALCULATION
------------------------------------------------------------------------------

                         BASIS SET STATISTICS AND STARTUP INFO

 # of primitive gaussian shells          ...  246
 # of primitive gaussian functions       ...  350
 # of contracted shells                  ...   97
 # of contracted basis functions         ...  149
 Highest angular momentum                ...    1
 Maximum contraction depth               ...    6
 Integral package used                   ... LIBINT
 Integral threshhold            Thresh   ...  2.500e-11
 Primitive cut-off              TCut     ...  2.500e-12


------------------------------ INTEGRAL EVALUATION ----------------------------


 * One electron integrals 
 Pre-screening matrix                    ... done
 Shell pair data                         ... done (   0.002 sec)

-------------------------------------------------------------------------------
                                 ORCA SCF
-------------------------------------------------------------------------------

------------
SCF SETTINGS
------------
Hamiltonian:
 Density Functional     Method          .... DFT(GTOs)
 Exchange Functional    Exchange        .... B88
   X-Alpha parameter    XAlpha          ....  0.666667
   Becke's b parameter  XBeta           ....  0.004200
 Correlation Functional Correlation     .... LYP
 LDA part of GGA corr.  LDAOpt          .... VWN-5
 Gradients option       PostSCFGGA      .... off
 Hybrid DFT is turned on
   Fraction HF Exchange ScalHFX         ....  0.200000
   Scaling of DF-GGA-X  ScalDFX         ....  0.720000
   Scaling of DF-GGA-C  ScalDFC         ....  0.810000
   Scaling of DF-LDA-C  ScalLDAC        ....  1.000000
   Perturbative correction              ....  0.000000
   Density functional embedding theory  .... OFF
   NL short-range parameter             ....  4.800000


General Settings:
 Integral files         IntName         .... project_8053/ensemble_0_315
 Hartree-Fock type      HFTyp           .... RHF
 Total Charge           Charge          ....    0
 Multiplicity           Mult            ....    1
 Number of Electrons    NEL             ....  102
 Basis Dimension        Dim             ....  149
 Nuclear Repulsion      ENuc            ....    899.5665172044 Eh

Convergence Acceleration:
 DIIS                   CNVDIIS         .... on
   Start iteration      DIISMaxIt       ....    12
   Startup error        DIISStart       ....  0.200000
   # of expansion vecs  DIISMaxEq       ....     5
   Bias factor          DIISBfac        ....   1.050
   Max. coefficient     DIISMaxC        ....  10.000
 Newton-Raphson         CNVNR           .... off
 SOSCF                  CNVSOSCF        .... on
   Start iteration      SOSCFMaxIt      ....   150
   Startup grad/error   SOSCFStart      ....  0.003300
 Level Shifting         CNVShift        .... on
   Level shift para.    LevelShift      ....    0.2500
   Turn off err/grad.   ShiftErr        ....    0.0010
 Zerner damping         CNVZerner       .... off
 Static damping         CNVDamp         .... on
   Fraction old density DampFac         ....    0.7000
   Max. Damping (<1)    DampMax         ....    0.9800
   Min. Damping (>=0)   DampMin         ....    0.0000
   Turn off err/grad.   DampErr         ....    0.1000
 Fernandez-Rico         CNVRico         .... off

SCF Procedure:
 Maximum # iterations   MaxIter         ....   125
 SCF integral mode      SCFMode         .... Direct
   Integral package                     .... LIBINT
 Reset frequency        DirectResetFreq ....    20
 Integral Threshold     Thresh          ....  2.500e-11 Eh
 Primitive CutOff       TCut            ....  2.500e-12 Eh

Convergence Tolerance:
 Convergence Check Mode ConvCheckMode   .... Total+1el-Energy
 Convergence forced     ConvForced      .... 0
 Energy Change          TolE            ....  1.000e-08 Eh
 1-El. energy change                    ....  1.000e-05 Eh
 Orbital Gradient       TolG            ....  1.000e-05
 Orbital Rotation angle TolX            ....  1.000e-05
 DIIS Error             TolErr          ....  5.000e-07


Diagonalization of the overlap matrix:
Smallest eigenvalue                        ... 3.735e-03
Time for diagonalization                   ...    0.008 sec
Threshold for overlap eigenvalues          ... 1.000e-08
Number of eigenvalues below threshold      ... 0
Time for construction of square roots      ...    7.218 sec
Total time needed                          ...    7.226 sec

-------------------
DFT GRID GENERATION
-------------------

General Integration Accuracy     IntAcc      ...  4.340
Radial Grid Type                 RadialGrid  ... Gauss-Chebyshev
Angular Grid (max. acc.)         AngularGrid ... Lebedev-110
Angular grid pruning method      GridPruning ... 3 (G Style)
Weight generation scheme         WeightScheme... Becke
Basis function cutoff            BFCut       ...    1.0000e-11
Integration weight cutoff        WCut        ...    1.0000e-14
Grids for H and He will be reduced by one unit

# of grid points (after initial pruning)     ...  34472 (   0.0 sec)
# of grid points (after weights+screening)   ...  30838 (   0.3 sec)
nearest neighbour list constructed           ...    0.0 sec
Grid point re-assignment to atoms done       ...    0.0 sec
Grid point division into batches done        ...    0.0 sec
Reduced shell lists constructed in    0.3 sec

Total number of grid points                  ...    30838
Total number of batches                      ...      498
Average number of points per batch           ...       61
Average number of grid points per atom       ...     1063
Average number of shells per batch           ...    61.58 (63.49%)
Average number of basis functions per batch  ...   100.12 (67.19%)
Average number of large shells per batch     ...    43.66 (70.89%)
Average number of large basis fcns per batch ...    72.35 (72.26%)
Maximum spatial batch extension              ...  19.44, 20.05, 18.39 au
Average spatial batch extension              ...   3.30,  3.30,  3.27 au

Time for grid setup =    2.159 sec

------------------------------
INITIAL GUESS: MODEL POTENTIAL
------------------------------
Loading Hartree-Fock densities                     ... done
Calculating cut-offs                               ... done
Setting up the integral package                    ... done
Initializing the effective Hamiltonian             ... done
Starting the Coulomb interaction                   ... done (   0.4 sec)
Reading the grid                                   ... done
Mapping shells                                     ... done
Starting the XC term evaluation                    ... done (   0.4 sec)
  promolecular density results
     # of electrons  =    102.012939767
     EX              =    -83.690061298
     EC              =     -3.466860396
     EX+EC           =    -87.156921694
Transforming the Hamiltonian                       ... done (   0.0 sec)
Diagonalizing the Hamiltonian                      ... done (   0.0 sec)
Back transforming the eigenvectors                 ... done (   0.0 sec)
Now organizing SCF variables                       ... done
                      ------------------
                      INITIAL GUESS DONE (   5.0 sec)
                      ------------------
--------------
SCF ITERATIONS
--------------
ITER       Energy         Delta-E        Max-DP      RMS-DP      [F,P]     Damp
               ***  Starting incremental Fock matrix formation  ***
  0   -652.5159732400   0.000000000000 0.07243644  0.00303629  0.2286290 0.7000
  1   -652.6536767818  -0.137703541790 0.03920676  0.00209862  0.0891041 0.7000
                               ***Turning on DIIS***
  2   -652.7062409271  -0.052564145221 0.06382667  0.00340431  0.0300022 0.0000
  3   -652.7918290434  -0.085588116315 0.02945690  0.00138320  0.0511852 0.0000
  4   -652.8093578228  -0.017528779397 0.00893758  0.00043803  0.0080203 0.0000
  5   -652.8103273198  -0.000969497021 0.00270025  0.00013724  0.0039877 0.0000
                      *** Initiating the SOSCF procedure ***
                           *** Shutting down DIIS ***
                      *** Re-Reading the Fockian *** 
                      *** Removing any level shift *** 
ITER      Energy       Delta-E        Grad      Rot      Max-DP    RMS-DP
  6   -652.81040434  -0.0000770188  0.000165  0.000165  0.000849  0.000056
               *** Restarting incremental Fock matrix formation ***
  7   -652.81040732  -0.0000029832  0.000116  0.000140  0.000930  0.000031
  8   -652.81040533   0.0000019895  0.000199  0.000105  0.000636  0.000019
  9   -652.81040860  -0.0000032655  0.000025  0.000044  0.000202  0.000007
 10   -652.81040853   0.0000000711  0.000040  0.000027  0.000127  0.000004
 11   -652.81040866  -0.0000001342  0.000004  0.000007  0.000031  0.000001
 12   -652.81040866   0.0000000019  0.000007  0.000004  0.000019  0.000001
                  ***Gradient check signals convergence***
              ***Rediagonalizing the Fockian in SOSCF/NRSCF***

               *****************************************************
               *                     SUCCESS                       *
               *           SCF CONVERGED AFTER  13 CYCLES          *
               *****************************************************

Setting up the final grid:

General Integration Accuracy     IntAcc      ...  4.670
Radial Grid Type                 RadialGrid  ... Gauss-Chebyshev
Angular Grid (max. acc.)         AngularGrid ... Lebedev-302
Angular grid pruning method      GridPruning ... 3 (G Style)
Weight generation scheme         WeightScheme... Becke
Basis function cutoff            BFCut       ...    1.0000e-11
Integration weight cutoff        WCut        ...    1.0000e-14
Grids for H and He will be reduced by one unit

# of grid points (after initial pruning)     ... 135060 (   0.1 sec)
# of grid points (after weights+screening)   ... 118240 (   0.9 sec)
nearest neighbour list constructed           ...    0.0 sec
Grid point re-assignment to atoms done       ...    0.0 sec
Grid point division into batches done        ...    0.4 sec
Reduced shell lists constructed in    1.3 sec

Total number of grid points                  ...   118240
Total number of batches                      ...     1860
Average number of points per batch           ...       63
Average number of grid points per atom       ...     4077
Average number of shells per batch           ...    56.32 (58.07%)
Average number of basis functions per batch  ...    91.89 (61.67%)
Average number of large shells per batch     ...    39.12 (69.46%)
Average number of large basis fcns per batch ...    64.99 (70.73%)
Maximum spatial batch extension              ...  20.34, 18.82, 19.79 au
Average spatial batch extension              ...   2.18,  2.19,  2.21 au

Final grid set up in    5.5 sec
Final integration                            ... done (  12.2 sec)
Change in XC energy                          ...     0.001299478
Integrated number of electrons               ...   102.000174292
Previous integrated no of electrons          ...   102.012319144

----------------
TOTAL SCF ENERGY
----------------

Total Energy       :         -652.80910918 Eh          -17763.83896 eV

Components:
Nuclear Repulsion  :          899.56651720 Eh           24478.44939 eV
Electronic Energy  :        -1552.37562639 Eh          -42242.28835 eV
One Electron Energy:        -2677.10645961 Eh          -72847.77028 eV
Two Electron Energy:         1124.73083322 Eh           30605.48192 eV

Virial components:
Potential Energy   :        -1301.89895188 Eh          -35426.47153 eV
Kinetic Energy     :          649.08984270 Eh           17662.63257 eV
Virial Ratio       :            2.00572997


DFT components:
N(Alpha)           :       51.000087145757 electrons
N(Beta)            :       51.000087145757 electrons
N(Total)           :      102.000174291514 electrons
E(X)               :      -67.614630953003 Eh       
E(C)               :       -4.076211026318 Eh       
E(XC)              :      -71.690841979322 Eh       
DFET-embed. en.    :        0.000000000000 Eh       

---------------
SCF CONVERGENCE
---------------

  Last Energy change         ...   -2.3248e-09  Tolerance :   1.0000e-08
  Last MAX-Density change    ...    2.5876e-06  Tolerance :   1.0000e-07
  Last RMS-Density change    ...    9.2665e-08  Tolerance :   5.0000e-09
  Last Orbital Gradient      ...    2.8588e-07  Tolerance :   1.0000e-05
  Last Orbital Rotation      ...    4.9363e-07  Tolerance :   1.0000e-05

             **** THE GBW FILE WAS UPDATED (project_8053/ensemble_0_315.gbw) ****
             **** DENSITY FILE WAS UPDATED (project_8053/ensemble_0_315.scfp) ****
             **** ENERGY FILE WAS UPDATED (project_8053/ensemble_0_315.en.tmp) ****
             **** THE GBW FILE WAS UPDATED (project_8053/ensemble_0_315.gbw) ****
             **** DENSITY FILE WAS UPDATED (project_8053/ensemble_0_315.scfp) ****
----------------
ORBITAL ENERGIES
----------------

  NO   OCC          E(Eh)            E(eV) 
   0   2.0000     -19.157712      -521.3078 
   1   2.0000     -19.151490      -521.1385 
   2   2.0000     -19.138321      -520.7802 
   3   2.0000     -19.127404      -520.4831 
   4   2.0000     -10.286100      -279.8990 
   5   2.0000     -10.239946      -278.6431 
   6   2.0000     -10.235858      -278.5319 
   7   2.0000     -10.230854      -278.3957 
   8   2.0000     -10.222110      -278.1578 
   9   2.0000     -10.207675      -277.7650 
  10   2.0000     -10.194218      -277.3988 
  11   2.0000     -10.192672      -277.3567 
  12   2.0000     -10.187612      -277.2190 
  13   2.0000      -1.050027       -28.5727 
  14   2.0000      -1.012372       -27.5481 
  15   2.0000      -0.970433       -26.4068 
  16   2.0000      -0.955958       -26.0129 
  17   2.0000      -0.795202       -21.6385 
  18   2.0000      -0.775968       -21.1152 
  19   2.0000      -0.756510       -20.5857 
  20   2.0000      -0.732874       -19.9425 
  21   2.0000      -0.672432       -18.2978 
  22   2.0000      -0.606104       -16.4929 
  23   2.0000      -0.595444       -16.2028 
  24   2.0000      -0.591593       -16.0981 
  25   2.0000      -0.567703       -15.4480 
  26   2.0000      -0.512863       -13.9557 
  27   2.0000      -0.509562       -13.8659 
  28   2.0000      -0.493864       -13.4387 
  29   2.0000      -0.483126       -13.1465 
  30   2.0000      -0.454614       -12.3707 
  31   2.0000      -0.453316       -12.3354 
  32   2.0000      -0.432837       -11.7781 
  33   2.0000      -0.423440       -11.5224 
  34   2.0000      -0.414669       -11.2837 
  35   2.0000      -0.412618       -11.2279 
  36   2.0000      -0.403954       -10.9921 
  37   2.0000      -0.390272       -10.6198 
  38   2.0000      -0.381899       -10.3920 
  39   2.0000      -0.373408       -10.1610 
  40   2.0000      -0.362645        -9.8681 
  41   2.0000      -0.358097        -9.7443 
  42   2.0000      -0.350342        -9.5333 
  43   2.0000      -0.325860        -8.8671 
  44   2.0000      -0.321858        -8.7582 
  45   2.0000      -0.306156        -8.3309 
  46   2.0000      -0.298392        -8.1197 
  47   2.0000      -0.268510        -7.3065 
  48   2.0000      -0.255244        -6.9455 
  49   2.0000      -0.244194        -6.6448 
  50   2.0000      -0.228662        -6.2222 
  51   0.0000       0.023198         0.6312 
  52   0.0000       0.068833         1.8731 
  53   0.0000       0.072934         1.9846 
  54   0.0000       0.085179         2.3178 
  55   0.0000       0.101495         2.7618 
  56   0.0000       0.106676         2.9028 
  57   0.0000       0.109706         2.9852 
  58   0.0000       0.117031         3.1846 
  59   0.0000       0.136329         3.7097 
  60   0.0000       0.142423         3.8755 
  61   0.0000       0.147489         4.0134 
  62   0.0000       0.151894         4.1332 
  63   0.0000       0.157570         4.2877 
  64   0.0000       0.162987         4.4351 
  65   0.0000       0.165989         4.5168 
  66   0.0000       0.178649         4.8613 
  67   0.0000       0.194149         5.2831 
  68   0.0000       0.196231         5.3397 
  69   0.0000       0.202319         5.5054 
  70   0.0000       0.208269         5.6673 
  71   0.0000       0.220263         5.9937 
  72   0.0000       0.230118         6.2618 
  73   0.0000       0.235038         6.3957 
  74   0.0000       0.245067         6.6686 
  75   0.0000       0.258474         7.0334 
  76   0.0000       0.273572         7.4443 
  77   0.0000       0.280081         7.6214 
  78   0.0000       0.288819         7.8592 
  79   0.0000       0.300606         8.1799 
  80   0.0000       0.307911         8.3787 
  81   0.0000       0.527642        14.3579 
  82   0.0000       0.534420        14.5423 
  83   0.0000       0.549847        14.9621 
  84   0.0000       0.551281        15.0011 
  85   0.0000       0.555142        15.1062 
  86   0.0000       0.563481        15.3331 
  87   0.0000       0.576022        15.6744 
  88   0.0000       0.579125        15.7588 
  89   0.0000       0.585743        15.9389 
  90   0.0000       0.600857        16.3501 
  91   0.0000       0.608463        16.5571 
  92   0.0000       0.620286        16.8788 
  93   0.0000       0.637519        17.3478 
  94   0.0000       0.645326        17.5602 
  95   0.0000       0.648676        17.6514 
  96   0.0000       0.659910        17.9571 
  97   0.0000       0.672586        18.3020 
  98   0.0000       0.685880        18.6638 
  99   0.0000       0.697669        18.9845 
 100   0.0000       0.741277        20.1712 
 101   0.0000       0.783089        21.3089 
 102   0.0000       0.798855        21.7379 
 103   0.0000       0.803241        21.8573 
 104   0.0000       0.819253        22.2930 
 105   0.0000       0.831469        22.6254 
 106   0.0000       0.842830        22.9346 
 107   0.0000       0.865108        23.5408 
 108   0.0000       0.868771        23.6405 
 109   0.0000       0.880476        23.9590 
 110   0.0000       0.885807        24.1040 
 111   0.0000       0.900000        24.4902 
 112   0.0000       0.904480        24.6121 
 113   0.0000       0.910832        24.7850 
 114   0.0000       0.929118        25.2826 
 115   0.0000       0.933736        25.4082 
 116   0.0000       0.941030        25.6067 
 117   0.0000       0.951184        25.8830 
 118   0.0000       0.962408        26.1885 
 119   0.0000       0.973353        26.4863 
 120   0.0000       0.983024        26.7494 
 121   0.0000       1.008196        27.4344 
 122   0.0000       1.021768        27.8037 
 123   0.0000       1.033676        28.1278 
 124   0.0000       1.053697        28.6725 
 125   0.0000       1.073770        29.2188 
 126   0.0000       1.093552        29.7571 
 127   0.0000       1.123762        30.5791 
 128   0.0000       1.155021        31.4297 
 129   0.0000       1.172539        31.9064 
 130   0.0000       1.201692        32.6997 
 131   0.0000       1.221338        33.2343 
 132   0.0000       1.271647        34.6033 
 133   0.0000       1.342770        36.5386 
 134   0.0000       1.362497        37.0754 
 135   0.0000       1.374176        37.3932 
 136   0.0000       1.402987        38.1772 
 137   0.0000       1.412993        38.4495 
 138   0.0000       1.438424        39.1415 
 139   0.0000       1.495926        40.7062 
 140   0.0000       1.506976        41.0069 
 141   0.0000       1.586608        43.1738 
 142   0.0000       1.626705        44.2649 
 143   0.0000       1.682446        45.7817 
 144   0.0000       1.731170        47.1075 
 145   0.0000       1.877965        51.1020 
 146   0.0000       1.958972        53.3063 
 147   0.0000       2.053110        55.8680 
 148   0.0000       2.123299        57.7779 

                    ********************************
                    * MULLIKEN POPULATION ANALYSIS *
                    ********************************

-----------------------
MULLIKEN ATOMIC CHARGES
-----------------------
   0 C :    0.300832
   1 C :   -0.260787
   2 C :   -0.302576
   3 C :   -0.020559
   4 O :   -0.529120
   5 H :    0.174991
   6 H :    0.149409
   7 H :    0.165063
   8 H :    0.148286
   9 H :    0.159254
  10 H :    0.153990
  11 H :    0.152921
  12 C :   -0.046416
  13 H :    0.121044
  14 H :    0.141051
  15 O :   -0.518498
  16 C :    0.050109
  17 C :    0.066860
  18 C :   -0.316565
  19 C :   -0.016363
  20 O :   -0.511310
  21 H :    0.246769
  22 H :    0.167836
  23 O :   -0.596221
  24 H :    0.152206
  25 H :    0.137354
  26 H :    0.144458
  27 H :    0.148043
  28 H :    0.337941
Sum of atomic charges:    0.0000000

--------------------------------
MULLIKEN REDUCED ORBITAL CHARGES
--------------------------------
  0 C s       :     3.240505  s :     3.240505
      pz      :     0.779871  p :     2.458664
      px      :     0.680776
      py      :     0.998017
  1 C s       :     3.306118  s :     3.306118
      pz      :     0.977696  p :     2.954669
      px      :     1.030623
      py      :     0.946350
  2 C s       :     3.317688  s :     3.317688
      pz      :     0.911573  p :     2.984888
      px      :     1.087389
      py      :     0.985927
  3 C s       :     3.267439  s :     3.267439
      pz      :     0.938547  p :     2.753120
      px      :     1.073747
      py      :     0.740825
  4 O s       :     3.940784  s :     3.940784
      pz      :     1.332080  p :     4.588336
      px      :     1.751796
      py      :     1.504459
  5 H s       :     0.825009  s :     0.825009
  6 H s       :     0.850591  s :     0.850591
  7 H s       :     0.834937  s :     0.834937
  8 H s       :     0.851714  s :     0.851714
  9 H s       :     0.840746  s :     0.840746
 10 H s       :     0.846010  s :     0.846010
 11 H s       :     0.847079  s :     0.847079
 12 C s       :     3.295572  s :     3.295572
      pz      :     0.756010  p :     2.750844
      px      :     1.008190
      py      :     0.986644
 13 H s       :     0.878956  s :     0.878956
 14 H s       :     0.858949  s :     0.858949
 15 O s       :     3.950707  s :     3.950707
      pz      :     1.425121  p :     4.567791
      px      :     1.282161
      py      :     1.860509
 16 C s       :     3.283962  s :     3.283962
      pz      :     0.784494  p :     2.665929
      px      :     1.151943
      py      :     0.729492
 17 C s       :     3.295471  s :     3.295471
      pz      :     0.868152  p :     2.637670
      px      :     0.952223
      py      :     0.817294
 18 C s       :     3.320999  s :     3.320999
      pz      :     0.985600  p :     2.995566
      px      :     0.978469
      py      :     1.031497
 19 C s       :     3.262966  s :     3.262966
      pz      :     0.971357  p :     2.753397
      px      :     0.785349
      py      :     0.996690
 20 O s       :     3.948191  s :     3.948191
      pz      :     1.675713  p :     4.563119
      px      :     1.427319
      py      :     1.460088
 21 H s       :     0.753231  s :     0.753231
 22 H s       :     0.832164  s :     0.832164
 23 O s       :     3.953056  s :     3.953056
      pz      :     1.583589  p :     4.643165
      px      :     1.745662
      py      :     1.313915
 24 H s       :     0.847794  s :     0.847794
 25 H s       :     0.862646  s :     0.862646
 26 H s       :     0.855542  s :     0.855542
 27 H s       :     0.851957  s :     0.851957
 28 H s       :     0.662059  s :     0.662059


                     *******************************
                     * LOEWDIN POPULATION ANALYSIS *
                     *******************************

----------------------
LOEWDIN ATOMIC CHARGES
----------------------
   0 C :    0.198549
   1 C :   -0.217742
   2 C :   -0.216491
   3 C :   -0.035507
   4 O :   -0.309180
   5 H :    0.119556
   6 H :    0.116908
   7 H :    0.128685
   8 H :    0.117486
   9 H :    0.116024
  10 H :    0.105196
  11 H :    0.108367
  12 C :   -0.054546
  13 H :    0.090897
  14 H :    0.108571
  15 O :   -0.357084
  16 C :   -0.017692
  17 C :    0.039091
  18 C :   -0.239429
  19 C :   -0.035681
  20 O :   -0.318869
  21 H :    0.160812
  22 H :    0.123260
  23 O :   -0.439372
  24 H :    0.120102
  25 H :    0.105883
  26 H :    0.102111
  27 H :    0.104297
  28 H :    0.275800

-------------------------------
LOEWDIN REDUCED ORBITAL CHARGES
-------------------------------
  0 C s       :     2.981872  s :     2.981872
      pz      :     0.906324  p :     2.819579
      px      :     0.828509
      py      :     1.084746
  1 C s       :     2.979214  s :     2.979214
      pz      :     1.074190  p :     3.238528
      px      :     1.107038
      py      :     1.057300
  2 C s       :     2.972171  s :     2.972171
      pz      :     1.034028  p :     3.244321
      px      :     1.132246
      py      :     1.078047
  3 C s       :     2.984512  s :     2.984512
      pz      :     1.040041  p :     3.050995
      px      :     1.126555
      py      :     0.884399
  4 O s       :     3.601278  s :     3.601278
      pz      :     1.387305  p :     4.707902
      px      :     1.770505
      py      :     1.550092
  5 H s       :     0.880444  s :     0.880444
  6 H s       :     0.883092  s :     0.883092
  7 H s       :     0.871315  s :     0.871315
  8 H s       :     0.882514  s :     0.882514
  9 H s       :     0.883976  s :     0.883976
 10 H s       :     0.894804  s :     0.894804
 11 H s       :     0.891633  s :     0.891633
 12 C s       :     3.001412  s :     3.001412
      pz      :     0.870952  p :     3.053134
      px      :     1.084717
      py      :     1.097464
 13 H s       :     0.909103  s :     0.909103
 14 H s       :     0.891429  s :     0.891429
 15 O s       :     3.650637  s :     3.650637
      pz      :     1.472913  p :     4.706447
      px      :     1.353901
      py      :     1.879634
 16 C s       :     2.973407  s :     2.973407
      pz      :     0.956926  p :     3.044285
      px      :     1.175625
      py      :     0.911735
 17 C s       :     2.974323  s :     2.974323
      pz      :     1.002823  p :     2.986587
      px      :     1.068644
      py      :     0.915120
 18 C s       :     2.982020  s :     2.982020
      pz      :     1.077072  p :     3.257409
      px      :     1.078708
      py      :     1.101629
 19 C s       :     2.982145  s :     2.982145
      pz      :     1.062366  p :     3.053535
      px      :     0.907744
      py      :     1.083426
 20 O s       :     3.603107  s :     3.603107
      pz      :     1.712081  p :     4.715762
      px      :     1.486498
      py      :     1.517183
 21 H s       :     0.839188  s :     0.839188
 22 H s       :     0.876740  s :     0.876740
 23 O s       :     3.693376  s :     3.693376
      pz      :     1.618220  p :     4.745997
      px      :     1.765813
      py      :     1.361963
 24 H s       :     0.879898  s :     0.879898
 25 H s       :     0.894117  s :     0.894117
 26 H s       :     0.897889  s :     0.897889
 27 H s       :     0.895703  s :     0.895703
 28 H s       :     0.724200  s :     0.724200


                      *****************************
                      * MAYER POPULATION ANALYSIS *
                      *****************************

  NA   - Mulliken gross atomic population
  ZA   - Total nuclear charge
  QA   - Mulliken gross atomic charge
  VA   - Mayer's total valence
  BVA  - Mayer's bonded valence
  FA   - Mayer's free valence

  ATOM       NA         ZA         QA         VA         BVA        FA
  0 C      5.6992     6.0000     0.3008     3.6038     3.6038     0.0000
  1 C      6.2608     6.0000    -0.2608     3.7099     3.7099     0.0000
  2 C      6.3026     6.0000    -0.3026     3.7620     3.7620     0.0000
  3 C      6.0206     6.0000    -0.0206     3.6266     3.6266     0.0000
  4 O      8.5291     8.0000    -0.5291     1.7844     1.7844    -0.0000
  5 H      0.8250     1.0000     0.1750     0.9245     0.9245     0.0000
  6 H      0.8506     1.0000     0.1494     0.9313     0.9313     0.0000
  7 H      0.8349     1.0000     0.1651     0.9363     0.9363     0.0000
  8 H      0.8517     1.0000     0.1483     0.9364     0.9364     0.0000
  9 H      0.8407     1.0000     0.1593     0.9336     0.9336     0.0000
 10 H      0.8460     1.0000     0.1540     0.9316     0.9316     0.0000
 11 H      0.8471     1.0000     0.1529     0.9290     0.9290     0.0000
 12 C      6.0464     6.0000    -0.0464     3.6502     3.6502     0.0000
 13 H      0.8790     1.0000     0.1210     0.9372     0.9372    -0.0000
 14 H      0.8589     1.0000     0.1411     0.9407     0.9407     0.0000
 15 O      8.5185     8.0000    -0.5185     1.7872     1.7872     0.0000
 16 C      5.9499     6.0000     0.0501     3.4645     3.4645     0.0000
 17 C      5.9331     6.0000     0.0669     3.6185     3.6185     0.0000
 18 C      6.3166     6.0000    -0.3166     3.7202     3.7202     0.0000
 19 C      6.0164     6.0000    -0.0164     3.6613     3.6613     0.0000
 20 O      8.5113     8.0000    -0.5113     1.7731     1.7731     0.0000
 21 H      0.7532     1.0000     0.2468     0.9177     0.9177     0.0000
 22 H      0.8322     1.0000     0.1678     0.9288     0.9288     0.0000
 23 O      8.5962     8.0000    -0.5962     1.7631     1.7631     0.0000
 24 H      0.8478     1.0000     0.1522     0.9386     0.9386     0.0000
 25 H      0.8626     1.0000     0.1374     0.9419     0.9419     0.0000
 26 H      0.8555     1.0000     0.1445     0.9253     0.9253     0.0000
 27 H      0.8520     1.0000     0.1480     0.9271     0.9271     0.0000
 28 H      0.6621     1.0000     0.3379     0.8583     0.8583    -0.0000

  Mayer bond orders larger than 0.100000
B(  0-C ,  1-C ) :   0.9301 B(  0-C ,  4-O ) :   0.8608 B(  0-C ,  5-H ) :   0.9239 
B(  0-C , 15-O ) :   0.8507 B(  1-C ,  2-C ) :   0.9522 B(  1-C ,  6-H ) :   0.9313 
B(  1-C ,  7-H ) :   0.9341 B(  2-C ,  3-C ) :   0.9529 B(  2-C ,  8-H ) :   0.9449 
B(  2-C ,  9-H ) :   0.9441 B(  3-C ,  4-O ) :   0.8130 B(  3-C , 10-H ) :   0.9238 
B(  3-C , 11-H ) :   0.9403 B( 12-C , 13-H ) :   0.8976 B( 12-C , 14-H ) :   0.9305 
B( 12-C , 15-O ) :   0.8689 B( 12-C , 16-C ) :   0.8849 B( 16-C , 17-C ) :   0.8672 
B( 16-C , 20-O ) :   0.8515 B( 16-C , 21-H ) :   0.8609 B( 17-C , 18-C ) :   0.9160 
B( 17-C , 22-H ) :   0.9339 B( 17-C , 23-O ) :   0.8781 B( 18-C , 19-C ) :   0.9350 
B( 18-C , 24-H ) :   0.9436 B( 18-C , 25-H ) :   0.9415 B( 19-C , 20-O ) :   0.8531 
B( 19-C , 26-H ) :   0.9308 B( 19-C , 27-H ) :   0.9373 B( 23-O , 28-H ) :   0.8051 


-------
TIMINGS
-------

Total SCF time: 0 days 0 hours 17 min 13 sec 

Total time                  ....    1033.796 sec
Sum of individual times     ....     887.267 sec  ( 85.8%)

Fock matrix formation       ....     844.677 sec  ( 81.7%)
  XC integration            ....     289.158 sec  ( 34.2% of F)
    Basis function eval.    ....       3.047 sec  (  1.1% of XC)
    Density eval.           ....       3.170 sec  (  1.1% of XC)
    XC-Functional eval.     ....       3.422 sec  (  1.2% of XC)
    XC-Potential eval.      ....       1.297 sec  (  0.4% of XC)
Diagonalization             ....       2.286 sec  (  0.2%)
Density matrix formation    ....       0.013 sec  (  0.0%)
Population analysis         ....      15.920 sec  (  1.5%)
Initial guess               ....       2.800 sec  (  0.3%)
Orbital Transformation      ....       0.000 sec  (  0.0%)
Orbital Orthonormalization  ....       0.000 sec  (  0.0%)
DIIS solution               ....       9.537 sec  (  0.9%)
SOSCF solution              ....       4.416 sec  (  0.4%)
Grid generation             ....       7.617 sec  (  0.7%)

-------------------------   --------------------
FINAL SINGLE POINT ENERGY      -652.809109183797
-------------------------   --------------------

------------------------------------------------------------------------------
                         ORCA SCF GRADIENT CALCULATION
------------------------------------------------------------------------------

Gradient of the Kohn-Sham DFT energy:
Kohn-Sham wavefunction type      ... RKS
Hartree-Fock exchange scaling    ...    0.200
Number of operators              ...    1
Number of atoms                  ...   29
Basis set dimensions             ...  149
Integral neglect threshold       ... 2.5e-11
Integral primitive cutoff        ... 2.5e-12

Nuclear repulsion gradient       ... done
One Electron Gradient            ... done
Pre-screening matrix             ... done
Starting the two electron gradient:
Two electron gradient done
Exchange-correlation gradient    ... done

------------------
CARTESIAN GRADIENT
------------------

   1   C   :    0.016450730    0.003598418   -0.012836474
   2   C   :    0.011118793   -0.003081628   -0.004247864
   3   C   :   -0.000033011    0.000175433   -0.001324230
   4   C   :   -0.006861804   -0.007814267   -0.002485258
   5   O   :   -0.021750528   -0.024993037    0.027239804
   6   H   :    0.008374210    0.000984892   -0.002111347
   7   H   :    0.000309924    0.002965903    0.000266294
   8   H   :    0.000881702    0.002594096   -0.001254052
   9   H   :   -0.000431091    0.000874557   -0.000270646
  10   H   :   -0.000669611    0.000838886    0.001010642
  11   H   :    0.000198037    0.001899259   -0.000313556
  12   H   :    0.000273713    0.000770446    0.000323671
  13   C   :   -0.027010184    0.007772142    0.014462376
  14   H   :   -0.001360302   -0.002733179    0.004696136
  15   H   :   -0.003876382   -0.005687742    0.016933930
  16   O   :   -0.011592781    0.006585270   -0.025492711
  17   C   :    0.004273476   -0.001642251   -0.001753413
  18   C   :    0.022530374   -0.028472903   -0.003112648
  19   C   :    0.000031204    0.007604454   -0.002449207
  20   C   :    0.003395334    0.000048963   -0.000124615
  21   O   :    0.000462933   -0.001693182   -0.004710813
  22   H   :    0.015955167    0.009493655   -0.004030625
  23   H   :    0.001343682   -0.009692580   -0.006915489
  24   O   :    0.023410432   -0.012858181    0.042783264
  25   H   :   -0.000063721   -0.001050349    0.000031835
  26   H   :    0.000281743   -0.000518316   -0.001693981
  27   H   :   -0.000030053    0.000762736   -0.000493114
  28   H   :    0.000285460    0.000553578   -0.000269133
  29   H   :   -0.035897448    0.052714926   -0.031858779

Difference to translation invariance:
           :    0.0000000000   -0.0000000000   -0.0000000000

Norm of the cartesian gradient     ...    0.1201583626
RMS gradient                       ...    0.0128823287
MAX gradient                       ...    0.0527149256

-------
TIMINGS
-------

Total SCF gradient time            ...      116.169 sec

One electron gradient       ....       0.393 sec  (  0.3%)
Prescreening matrices       ....       0.047 sec  (  0.0%)
Two electron gradient       ....      15.074 sec  ( 13.0%)
XC gradient                 ....      78.797 sec  ( 67.8%)
------------------------------------------------------------------------------
                         ORCA GEOMETRY RELAXATION STEP
------------------------------------------------------------------------------

Reading the OPT-File                    .... done
Getting information on internals        .... done
Copying old internal coords+grads       .... done
Making the new internal coordinates     .... (new redundants).... done
Validating the new internal coordinates .... (new redundants).... done
Calculating the B-matrix                .... done
Calculating the G,G- and P matrices     .... done
Transforming gradient to internals      .... done
Projecting the internal gradient        .... done
Number of atoms                         ....  29
Number of internal coordinates          .... 172
Current Energy                          ....  -652.809109184 Eh
Current gradient norm                   ....     0.120158363 Eh/bohr
Maximum allowed component of the step   ....  0.300
Current trust radius                    ....  0.300
Evaluating the initial hessian          ....  (Almloef) done
Projecting the Hessian                  .... done
Forming the augmented Hessian           .... done
Diagonalizing the augmented Hessian     .... done
Last element of RFO vector              ....  0.884992542
Lowest eigenvalues of augmented Hessian:
 -0.105104448  0.007839290  0.032950352  0.033139642  0.036575418
Length of the computed step             ....  0.526112002
Warning: the length of the step is outside the trust region - taking restricted step instead
The input lambda is                     ....    -0.105104
   iter:   1  x=   -0.220770  g=    1.614941 f(x)=     0.186794
   iter:   2  x=   -0.327075  g=    0.645838 f(x)=     0.068656
   iter:   3  x=   -0.377260  g=    0.353242 f(x)=     0.017727
   iter:   4  x=   -0.384518  g=    0.277251 f(x)=     0.002012
   iter:   5  x=   -0.384642  g=    0.268171 f(x)=     0.000033
   iter:   6  x=   -0.384642  g=    0.268020 f(x)=     0.000000
   iter:   7  x=   -0.384642  g=    0.268020 f(x)=     0.000000
The output lambda is                    ....    -0.384642 (7 iterations)
The final length of the internal step   ....  0.300000000
Converting the step to cartesian space:
 Initial RMS(Int)=    0.0228747855
Transforming coordinates:
 Iter   0:  RMS(Cart)=    0.3197525011 RMS(Int)=    0.0249301418
 Iter   1:  RMS(Cart)=    0.0291593609 RMS(Int)=    0.0121943825
 Iter   2:  RMS(Cart)=    0.0064850768 RMS(Int)=    0.0015724955
 Iter   3:  RMS(Cart)=    0.0012351951 RMS(Int)=    0.0004961627
 Iter   4:  RMS(Cart)=    0.0002471837 RMS(Int)=    0.0000722962
 Iter   5:  RMS(Cart)=    0.0000455070 RMS(Int)=    0.0000169307
 Iter   6:  RMS(Cart)=    0.0000093569 RMS(Int)=    0.0000035400
 Iter   7:  RMS(Cart)=    0.0000019679 RMS(Int)=    0.0000006234
 Iter   8:  RMS(Cart)=    0.0000003716 RMS(Int)=    0.0000001635
 Iter   9:  RMS(Cart)=    0.0000000781 RMS(Int)=    0.0000000207
Imposing constraints:
 Iter   0:  RMS(Cart)=    0.0003118170 RMS(Int)=    0.0000888507
 Iter   1:  RMS(Cart)=    0.0001583759 RMS(Int)=    0.0000569799
 Iter   2:  RMS(Cart)=    0.0000854048 RMS(Int)=    0.0000409173
 Iter   3:  RMS(Cart)=    0.0000490792 RMS(Int)=    0.0000324626
 Iter   4:  RMS(Cart)=    0.0000300228 RMS(Int)=    0.0000278739
 Iter   5:  RMS(Cart)=    0.0000194463 RMS(Int)=    0.0000252749
 Iter   6:  RMS(Cart)=    0.0000132589 RMS(Int)=    0.0000236932
[...]
  29   2.0000      -0.488004       -13.2793 
  30   2.0000      -0.464179       -12.6310 
  31   2.0000      -0.455035       -12.3821 
  32   2.0000      -0.439663       -11.9638 
  33   2.0000      -0.427597       -11.6355 
  34   2.0000      -0.424983       -11.5644 
  35   2.0000      -0.412849       -11.2342 
  36   2.0000      -0.407222       -11.0811 
  37   2.0000      -0.397050       -10.8043 
  38   2.0000      -0.377704       -10.2779 
  39   2.0000      -0.369937       -10.0665 
  40   2.0000      -0.357956        -9.7405 
  41   2.0000      -0.356499        -9.7008 
  42   2.0000      -0.345815        -9.4101 
  43   2.0000      -0.330058        -8.9813 
  44   2.0000      -0.319779        -8.7016 
  45   2.0000      -0.311853        -8.4859 
  46   2.0000      -0.302357        -8.2275 
  47   2.0000      -0.269421        -7.3313 
  48   2.0000      -0.258322        -7.0293 
  49   2.0000      -0.247253        -6.7281 
  50   2.0000      -0.227404        -6.1880 
  51   0.0000       0.052485         1.4282 
  52   0.0000       0.074599         2.0299 
  53   0.0000       0.086367         2.3502 
  54   0.0000       0.093516         2.5447 
  55   0.0000       0.105665         2.8753 
  56   0.0000       0.110090         2.9957 
  57   0.0000       0.114927         3.1273 
  58   0.0000       0.134076         3.6484 
  59   0.0000       0.146865         3.9964 
  60   0.0000       0.149770         4.0754 
  61   0.0000       0.155665         4.2359 
  62   0.0000       0.156659         4.2629 
  63   0.0000       0.161126         4.3845 
  64   0.0000       0.163429         4.4471 
  65   0.0000       0.172835         4.7031 
  66   0.0000       0.184963         5.0331 
  67   0.0000       0.194641         5.2964 
  68   0.0000       0.202525         5.5110 
  69   0.0000       0.205627         5.5954 
  70   0.0000       0.211668         5.7598 
  71   0.0000       0.228818         6.2265 
  72   0.0000       0.234665         6.3855 
  73   0.0000       0.245275         6.6743 
  74   0.0000       0.252807         6.8792 
  75   0.0000       0.270410         7.3582 
  76   0.0000       0.275080         7.4853 
  77   0.0000       0.286792         7.8040 
  78   0.0000       0.288549         7.8518 
  79   0.0000       0.301819         8.2129 
  80   0.0000       0.313230         8.5234 
  81   0.0000       0.510688        13.8965 
  82   0.0000       0.542035        14.7495 
  83   0.0000       0.546839        14.8802 
  84   0.0000       0.549912        14.9639 
  85   0.0000       0.554202        15.0806 
  86   0.0000       0.561173        15.2703 
  87   0.0000       0.573286        15.5999 
  88   0.0000       0.586043        15.9470 
  89   0.0000       0.589903        16.0521 
  90   0.0000       0.606864        16.5136 
  91   0.0000       0.610127        16.6024 
  92   0.0000       0.616155        16.7664 
  93   0.0000       0.632051        17.1990 
  94   0.0000       0.644392        17.5348 
  95   0.0000       0.646057        17.5801 
  96   0.0000       0.660127        17.9630 
  97   0.0000       0.674219        18.3464 
  98   0.0000       0.681569        18.5464 
  99   0.0000       0.692216        18.8361 
 100   0.0000       0.743577        20.2338 
 101   0.0000       0.791337        21.5334 
 102   0.0000       0.806800        21.9542 
 103   0.0000       0.820836        22.3361 
 104   0.0000       0.824679        22.4407 
 105   0.0000       0.833006        22.6672 
 106   0.0000       0.844210        22.9721 
 107   0.0000       0.866853        23.5883 
 108   0.0000       0.872793        23.7499 
 109   0.0000       0.886127        24.1127 
 110   0.0000       0.889063        24.1926 
 111   0.0000       0.895697        24.3732 
 112   0.0000       0.903573        24.5875 
 113   0.0000       0.908208        24.7136 
 114   0.0000       0.927801        25.2467 
 115   0.0000       0.931651        25.3515 
 116   0.0000       0.939561        25.5668 
 117   0.0000       0.950423        25.8623 
 118   0.0000       0.954098        25.9623 
 119   0.0000       0.974688        26.5226 
 120   0.0000       0.976487        26.5716 
 121   0.0000       0.999577        27.1999 
 122   0.0000       1.010654        27.5013 
 123   0.0000       1.014941        27.6179 
 124   0.0000       1.041721        28.3467 
 125   0.0000       1.065690        28.9989 
 126   0.0000       1.097990        29.8778 
 127   0.0000       1.102868        30.0106 
 128   0.0000       1.135853        30.9081 
 129   0.0000       1.163289        31.6547 
 130   0.0000       1.205105        32.7926 
 131   0.0000       1.236242        33.6399 
 132   0.0000       1.262039        34.3418 
 133   0.0000       1.310121        35.6502 
 134   0.0000       1.338503        36.4225 
 135   0.0000       1.363645        37.1067 
 136   0.0000       1.387086        37.7445 
 137   0.0000       1.425242        38.7828 
 138   0.0000       1.450229        39.4627 
 139   0.0000       1.488960        40.5167 
 140   0.0000       1.554748        42.3068 
 141   0.0000       1.557276        42.3756 
 142   0.0000       1.611368        43.8476 
 143   0.0000       1.705709        46.4147 
 144   0.0000       1.732658        47.1480 
 145   0.0000       1.900721        51.7212 
 146   0.0000       1.972482        53.6740 
 147   0.0000       2.040376        55.5215 
 148   0.0000       2.137719        58.1703 

                    ********************************
                    * MULLIKEN POPULATION ANALYSIS *
                    ********************************

-----------------------
MULLIKEN ATOMIC CHARGES
-----------------------
   0 C :    0.313648
   1 C :   -0.259183
   2 C :   -0.309790
   3 C :   -0.022915
   4 O :   -0.511595
   5 H :    0.166053
   6 H :    0.144101
   7 H :    0.159679
   8 H :    0.147067
   9 H :    0.154473
  10 H :    0.149816
  11 H :    0.153284
  12 C :   -0.000779
  13 H :    0.118292
  14 H :    0.142967
  15 O :   -0.545578
  16 C :    0.062930
  17 C :    0.080160
  18 C :   -0.325458
  19 C :   -0.013059
  20 O :   -0.509856
  21 H :    0.202390
  22 H :    0.167634
  23 O :   -0.602756
  24 H :    0.155771
  25 H :    0.131572
  26 H :    0.145531
  27 H :    0.149907
  28 H :    0.355693
Sum of atomic charges:    0.0000000

--------------------------------
MULLIKEN REDUCED ORBITAL CHARGES
--------------------------------
  0 C s       :     3.195042  s :     3.195042
      pz      :     0.836357  p :     2.491311
      px      :     0.655131
      py      :     0.999823
  1 C s       :     3.304433  s :     3.304433
      pz      :     0.961095  p :     2.954750
      px      :     1.053996
      py      :     0.939660
  2 C s       :     3.317637  s :     3.317637
      pz      :     0.931493  p :     2.992153
      px      :     1.070958
      py      :     0.989702
  3 C s       :     3.269523  s :     3.269523
      pz      :     0.954980  p :     2.753392
      px      :     1.051541
      py      :     0.746870
  4 O s       :     3.942338  s :     3.942338
      pz      :     1.411592  p :     4.569257
      px      :     1.639804
      py      :     1.517861
  5 H s       :     0.833947  s :     0.833947
  6 H s       :     0.855899  s :     0.855899
  7 H s       :     0.840321  s :     0.840321
  8 H s       :     0.852933  s :     0.852933
  9 H s       :     0.845527  s :     0.845527
 10 H s       :     0.850184  s :     0.850184
 11 H s       :     0.846716  s :     0.846716
 12 C s       :     3.250468  s :     3.250468
      pz      :     0.783524  p :     2.750311
      px      :     0.974465
      py      :     0.992323
 13 H s       :     0.881708  s :     0.881708
 14 H s       :     0.857033  s :     0.857033
 15 O s       :     3.907559  s :     3.907559
      pz      :     1.480350  p :     4.638019
      px      :     1.307761
      py      :     1.849908
 16 C s       :     3.269458  s :     3.269458
      pz      :     0.830136  p :     2.667613
      px      :     1.103713
      py      :     0.733763
 17 C s       :     3.251873  s :     3.251873
      pz      :     0.897319  p :     2.667967
      px      :     0.951092
      py      :     0.819556
 18 C s       :     3.322694  s :     3.322694
      pz      :     0.994997  p :     3.002764
      px      :     0.983153
      py      :     1.024614
 19 C s       :     3.264074  s :     3.264074
      pz      :     0.998323  p :     2.748985
      px      :     0.758979
      py      :     0.991682
 20 O s       :     3.946614  s :     3.946614
      pz      :     1.709371  p :     4.563242
      px      :     1.420153
      py      :     1.433718
 21 H s       :     0.797610  s :     0.797610
 22 H s       :     0.832366  s :     0.832366
 23 O s       :     3.920353  s :     3.920353
      pz      :     1.659586  p :     4.682403
      px      :     1.623141
      py      :     1.399676
 24 H s       :     0.844229  s :     0.844229
 25 H s       :     0.868428  s :     0.868428
 26 H s       :     0.854469  s :     0.854469
 27 H s       :     0.850093  s :     0.850093
 28 H s       :     0.644307  s :     0.644307


                     *******************************
                     * LOEWDIN POPULATION ANALYSIS *
                     *******************************

----------------------
LOEWDIN ATOMIC CHARGES
----------------------
   0 C :    0.188223
   1 C :   -0.220203
   2 C :   -0.219384
   3 C :   -0.035365
   4 O :   -0.315068
   5 H :    0.110609
   6 H :    0.113220
   7 H :    0.125237
   8 H :    0.117014
   9 H :    0.113776
  10 H :    0.104681
  11 H :    0.107855
  12 C :   -0.041681
  13 H :    0.087802
  14 H :    0.107378
  15 O :   -0.337891
  16 C :   -0.001245
  17 C :    0.034721
  18 C :   -0.242878
  19 C :   -0.031889
  20 O :   -0.317798
  21 H :    0.134268
  22 H :    0.118765
  23 O :   -0.410411
  24 H :    0.121308
  25 H :    0.102689
  26 H :    0.103160
  27 H :    0.105781
  28 H :    0.277329

-------------------------------
LOEWDIN REDUCED ORBITAL CHARGES
-------------------------------
  0 C s       :     2.952206  s :     2.952206
      pz      :     0.943937  p :     2.859571
      px      :     0.828845
      py      :     1.086789
  1 C s       :     2.981189  s :     2.981189
      pz      :     1.067946  p :     3.239013
      px      :     1.115328
      py      :     1.055739
  2 C s       :     2.971690  s :     2.971690
      pz      :     1.046643  p :     3.247695
      px      :     1.122099
      py      :     1.078952
  3 C s       :     2.987676  s :     2.987676
      pz      :     1.046016  p :     3.047690
      px      :     1.114556
      py      :     0.887118
  4 O s       :     3.601841  s :     3.601841
      pz      :     1.467466  p :     4.713227
      px      :     1.680382
      py      :     1.565380
  5 H s       :     0.889391  s :     0.889391
  6 H s       :     0.886780  s :     0.886780
  7 H s       :     0.874763  s :     0.874763
  8 H s       :     0.882986  s :     0.882986
  9 H s       :     0.886224  s :     0.886224
 10 H s       :     0.895319  s :     0.895319
 11 H s       :     0.892145  s :     0.892145
 12 C s       :     2.973795  s :     2.973795
      pz      :     0.920987  p :     3.067886
      px      :     1.049550
      py      :     1.097349
 13 H s       :     0.912198  s :     0.912198
 14 H s       :     0.892622  s :     0.892622
 15 O s       :     3.564193  s :     3.564193
      pz      :     1.526733  p :     4.773698
      px      :     1.379964
      py      :     1.867000
 16 C s       :     2.966034  s :     2.966034
      pz      :     0.978311  p :     3.035211
      px      :     1.143055
      py      :     0.913844
 17 C s       :     2.952793  s :     2.952793
      pz      :     1.020394  p :     3.012486
      px      :     1.060299
      py      :     0.931793
 18 C s       :     2.983740  s :     2.983740
      pz      :     1.081887  p :     3.259139
      px      :     1.079627
      py      :     1.097625
 19 C s       :     2.980918  s :     2.980918
      pz      :     1.081849  p :     3.050971
      px      :     0.888267
      py      :     1.080855
 20 O s       :     3.602117  s :     3.602117
      pz      :     1.743170  p :     4.715682
      px      :     1.479666
      py      :     1.492846
 21 H s       :     0.865732  s :     0.865732
 22 H s       :     0.881235  s :     0.881235
 23 O s       :     3.609482  s :     3.609482
      pz      :     1.697994  p :     4.800929
      px      :     1.653596
      py      :     1.449338
 24 H s       :     0.878692  s :     0.878692
 25 H s       :     0.897311  s :     0.897311
 26 H s       :     0.896840  s :     0.896840
 27 H s       :     0.894219  s :     0.894219
 28 H s       :     0.722671  s :     0.722671


                      *****************************
                      * MAYER POPULATION ANALYSIS *
                      *****************************

  NA   - Mulliken gross atomic population
  ZA   - Total nuclear charge
  QA   - Mulliken gross atomic charge
  VA   - Mayer's total valence
  BVA  - Mayer's bonded valence
  FA   - Mayer's free valence

  ATOM       NA         ZA         QA         VA         BVA        FA
  0 C      5.6864     6.0000     0.3136     3.6412     3.6412    -0.0000
  1 C      6.2592     6.0000    -0.2592     3.7102     3.7102    -0.0000
  2 C      6.3098     6.0000    -0.3098     3.7672     3.7672    -0.0000
  3 C      6.0229     6.0000    -0.0229     3.6494     3.6494     0.0000
  4 O      8.5116     8.0000    -0.5116     1.8031     1.8031    -0.0000
  5 H      0.8339     1.0000     0.1661     0.9260     0.9260    -0.0000
  6 H      0.8559     1.0000     0.1441     0.9338     0.9338    -0.0000
  7 H      0.8403     1.0000     0.1597     0.9399     0.9399    -0.0000
  8 H      0.8529     1.0000     0.1471     0.9368     0.9368    -0.0000
  9 H      0.8455     1.0000     0.1545     0.9328     0.9328    -0.0000
 10 H      0.8502     1.0000     0.1498     0.9272     0.9272     0.0000
 11 H      0.8467     1.0000     0.1533     0.9280     0.9280     0.0000
 12 C      6.0008     6.0000    -0.0008     3.6358     3.6358    -0.0000
 13 H      0.8817     1.0000     0.1183     0.9378     0.9378    -0.0000
 14 H      0.8570     1.0000     0.1430     0.9387     0.9387     0.0000
 15 O      8.5456     8.0000    -0.5456     1.7359     1.7359    -0.0000
 16 C      5.9371     6.0000     0.0629     3.5122     3.5122     0.0000
 17 C      5.9198     6.0000     0.0802     3.6414     3.6414     0.0000
 18 C      6.3255     6.0000    -0.3255     3.7283     3.7283    -0.0000
 19 C      6.0131     6.0000    -0.0131     3.6677     3.6677     0.0000
 20 O      8.5099     8.0000    -0.5099     1.7760     1.7760    -0.0000
 21 H      0.7976     1.0000     0.2024     0.9386     0.9386    -0.0000
 22 H      0.8324     1.0000     0.1676     0.9248     0.9248     0.0000
 23 O      8.6028     8.0000    -0.6028     1.7496     1.7496    -0.0000
 24 H      0.8442     1.0000     0.1558     0.9365     0.9365     0.0000
 25 H      0.8684     1.0000     0.1316     0.9417     0.9417     0.0000
 26 H      0.8545     1.0000     0.1455     0.9250     0.9250     0.0000
 27 H      0.8501     1.0000     0.1499     0.9266     0.9266    -0.0000
 28 H      0.6443     1.0000     0.3557     0.8379     0.8379    -0.0000

  Mayer bond orders larger than 0.100000
B(  0-C ,  1-C ) :   0.9294 B(  0-C ,  4-O ) :   0.8964 B(  0-C ,  5-H ) :   0.9290 
B(  0-C , 15-O ) :   0.8451 B(  1-C ,  2-C ) :   0.9538 B(  1-C ,  6-H ) :   0.9355 
B(  1-C ,  7-H ) :   0.9368 B(  2-C ,  3-C ) :   0.9538 B(  2-C ,  8-H ) :   0.9447 
B(  2-C ,  9-H ) :   0.9454 B(  3-C ,  4-O ) :   0.8294 B(  3-C , 10-H ) :   0.9311 
B(  3-C , 11-H ) :   0.9395 B( 12-C , 13-H ) :   0.9021 B( 12-C , 14-H ) :   0.9386 
B( 12-C , 15-O ) :   0.8521 B( 12-C , 16-C ) :   0.8906 B( 16-C , 17-C ) :   0.8646 
B( 16-C , 20-O ) :   0.8550 B( 16-C , 21-H ) :   0.9024 B( 17-C , 18-C ) :   0.9236 
B( 17-C , 22-H ) :   0.9336 B( 17-C , 23-O ) :   0.8927 B( 18-C , 19-C ) :   0.9395 
B( 18-C , 24-H ) :   0.9423 B( 18-C , 25-H ) :   0.9403 B( 19-C , 20-O ) :   0.8541 
B( 19-C , 26-H ) :   0.9307 B( 19-C , 27-H ) :   0.9370 B( 23-O , 28-H ) :   0.7988 


-------
TIMINGS
-------

Total SCF time: 0 days 0 hours 5 min 27 sec 

Total time                  ....     327.415 sec
Sum of individual times     ....     225.110 sec  ( 68.8%)

Fock matrix formation       ....     184.184 sec  ( 56.3%)
  XC integration            ....      87.530 sec  ( 47.5% of F)
    Basis function eval.    ....       1.461 sec  (  1.7% of XC)
    Density eval.           ....       1.101 sec  (  1.3% of XC)
    XC-Functional eval.     ....       1.546 sec  (  1.8% of XC)
    XC-Potential eval.      ....       0.610 sec  (  0.7% of XC)
Diagonalization             ....       0.070 sec  (  0.0%)
Density matrix formation    ....       0.005 sec  (  0.0%)
Population analysis         ....       2.116 sec  (  0.6%)
Initial guess               ....       1.524 sec  (  0.5%)
Orbital Transformation      ....       0.000 sec  (  0.0%)
Orbital Orthonormalization  ....       0.005 sec  (  0.0%)
DIIS solution               ....       0.001 sec  (  0.0%)
SOSCF solution              ....       3.823 sec  (  1.2%)
Grid generation             ....      33.386 sec  ( 10.2%)

-------------------------   --------------------
FINAL SINGLE POINT ENERGY      -652.850050999738
-------------------------   --------------------

                                *** OPTIMIZATION RUN DONE ***

                            ***************************************
                            *     ORCA property calculations      *
                            ***************************************

                                    ---------------------
                                    Active property flags
                                    ---------------------
   (+) Dipole Moment


------------------------------------------------------------------------------
                       ORCA ELECTRIC PROPERTIES CALCULATION
------------------------------------------------------------------------------

Dipole Moment Calculation                       ... on
Quadrupole Moment Calculation                   ... off
Polarizability Calculation                      ... off
GBWName                                         ... project_8053/ensemble_0_315.gbw
Electron density file                           ... project_8053/ensemble_0_315.scfp
The origin for moment calculation is the CENTER OF MASS  = (-42.021160, 48.396534 90.646901)

-------------
DIPOLE MOMENT
-------------
                                X             Y             Z
Electronic contribution:      0.48513      -2.96053      -0.62511
Nuclear contribution   :     -0.99184       3.69925       0.82209
                        -----------------------------------------
Total Dipole Moment    :     -0.50671       0.73871       0.19697
                        -----------------------------------------
Magnitude (a.u.)       :      0.91720
Magnitude (Debye)      :      2.33133



--------------------
Rotational spectrum 
--------------------
 
Rotational constants in cm-1:     0.051453     0.015410     0.013875 
Rotational constants in MHz :  1542.533947   461.990456   415.960055 

 Dipole components along the rotational axes: 
x,y,z [a.u.] :     0.015844     0.514406     0.759201 
x,y,z [Debye]:     0.040273     1.307517     1.929735 

 

Timings for individual modules:

Sum of individual times         ...     5876.658 sec (=  97.944 min)
GTO integral calculation        ...      178.303 sec (=   2.972 min)   3.0 %
SCF iterations                  ...     5167.322 sec (=  86.122 min)  87.9 %
SCF Gradient evaluation         ...      381.068 sec (=   6.351 min)   6.5 %
Geometry relaxation             ...      149.964 sec (=   2.499 min)   2.6 %
                             ****ORCA TERMINATED NORMALLY****
TOTAL RUN TIME: 0 days 1 hours 44 minutes 42 seconds 171 msec
