
                                 *****************
                                 * O   R   C   A *
                                 *****************

           --- An Ab Initio, DFT and Semiempirical electronic structure package ---

                  #######################################################
                  #                        -***-                        #
                  #          Department of theory and spectroscopy      #
                  #               Directorship: Frank Neese             #
                  #        Max Planck Institute fuer Kohlenforschung    #
                  #                Kaiser Wilhelm Platz 1               #
                  #                 D-45470 Muelheim/Ruhr               #
                  #                      Germany                        #
                  #                                                     #
                  #                  All rights reserved                #
                  #                        -***-                        #
                  #######################################################


                         Program Version 4.2.0 -  RELEASE  -


 With contributions from (in alphabetic order):
   Daniel Aravena         : Magnetic Suceptibility
   Michael Atanasov       : Ab Initio Ligand Field Theory (pilot matlab implementation)
   Alexander A. Auer      : GIAO ZORA, VPT2
   Ute Becker             : Parallelization
   Giovanni Bistoni       : ED, misc. LED, open-shell LED, HFLED
   Martin Brehm           : Molecular dynamics
   Dmytro Bykov           : SCF Hessian
   Vijay G. Chilkuri      : MRCI spin determinant printing, contributions to CSF-ICE
   Dipayan Datta          : RHF DLPNO-CCSD density
   Achintya Kumar Dutta   : EOM-CC, STEOM-CC
   Dmitry Ganyushin       : Spin-Orbit,Spin-Spin,Magnetic field MRCI
   Miquel Garcia          : C-PCM Hessian, Gaussian charge scheme
   Yang Guo               : DLPNO-NEVPT2, CIM, IAO-localization
   Andreas Hansen         : Spin unrestricted coupled pair/coupled cluster methods
   Benjamin Helmich-Paris : CASSCF linear response (MC-RPA)
   Lee Huntington         : MR-EOM, pCC
   Robert Izsak           : Overlap fitted RIJCOSX, COSX-SCS-MP3, EOM
   Christian Kollmar      : KDIIS, OOCD, Brueckner-CCSD(T), CCSD density
   Simone Kossmann        : Meta GGA functionals, TD-DFT gradient, OOMP2, MP2 Hessian
   Martin Krupicka        : AUTO-CI
   Lucas Lang             : DCDCAS
   Dagmar Lenk            : GEPOL surface, SMD
   Dimitrios Liakos       : Extrapolation schemes; Compound Job, initial MDCI parallelization
   Dimitrios Manganas     : Further ROCIS development; embedding schemes
   Dimitrios Pantazis     : SARC Basis sets
   Taras Petrenko         : DFT Hessian,TD-DFT gradient, ASA, ECA, R-Raman, ABS, FL, XAS/XES, NRVS
   Peter Pinski           : DLPNO-MP2, DLPNO-MP2 Gradient
   Christoph Reimann      : Effective Core Potentials
   Marius Retegan         : Local ZFS, SOC
   Christoph Riplinger    : Optimizer, TS searches, QM/MM, DLPNO-CCSD(T), (RO)-DLPNO pert. Triples
   Tobias Risthaus        : Range-separated hybrids, TD-DFT gradient, RPA, STAB
   Michael Roemelt        : Original ROCIS implementation
   Masaaki Saitow         : Open-shell DLPNO-CCSD energy and density
   Barbara Sandhoefer     : DKH picture change effects
   Avijit Sen             : IP-ROCIS
   Kantharuban Sivalingam : CASSCF convergence, NEVPT2, FIC-MRCI
   Bernardo de Souza      : ESD, SOC TD-DFT
   Georgi Stoychev        : AutoAux, RI-MP2 NMR
   Willem Van den Heuvel  : Paramagnetic NMR
   Boris Wezisla          : Elementary symmetry handling
   Frank Wennmohs         : Technical directorship


 We gratefully acknowledge several colleagues who have allowed us to
 interface, adapt or use parts of their codes:
   Stefan Grimme, W. Hujo, H. Kruse,             : VdW corrections, initial TS optimization,
                  C. Bannwarth                     DFT functionals, gCP, sTDA/sTD-DF
   Ed Valeev, F. Pavosevic, A. Kumar             : LibInt (2-el integral package), F12 methods
   Garnet Chan, S. Sharma, J. Yang, R. Olivares  : DMRG
   Ulf Ekstrom                                   : XCFun DFT Library
   Mihaly Kallay                                 : mrcc  (arbitrary order and MRCC methods)
   Andreas Klamt, Michael Diedenhofen            : otool_cosmo (COSMO solvation model)
   Jiri Pittner, Ondrej Demel                    : Mk-CCSD
   Frank Weinhold                                : gennbo (NPA and NBO analysis)
   Christopher J. Cramer and Donald G. Truhlar   : smd solvation model
   Lars Goerigk                                  : TD-DFT with DH, B97 family of functionals
   V. Asgeirsson, H. Jonsson                     : NEB implementation
   FAccTs GmbH                                   : IRC, NEB, NEB-TS, Multilevel, MM, QM/MM, CI optimization
   S Lehtola, MJT Oliveira, MAL Marques          : LibXC Library


 Your calculation uses the libint2 library for the computation of 2-el integrals
 For citations please refer to: http://libint.valeyev.net

 Your ORCA version has been built with support for libXC version: 4.2.3
 For citations please refer to: https://tddft.org/programs/libxc/

 This ORCA versions uses:
   CBLAS   interface :  Fast vector & matrix operations
   LAPACKE interface :  Fast linear algebra routines
   SCALAPACK package :  Parallel linear algebra routines


----- Orbital basis set information -----
Your calculation utilizes the basis: 6-31G
   H-He, Li-Ne : W. J. Hehre, R. Ditchfield and J.A. Pople, J. Chem. Phys. 56, 2257 (1972).
                 Note: He and Ne are unpublished basis sets taken from the Gaussian program.
                 Note: Li and B from J. D. Dill and J. A. Pople, J. Chem. Phys. 62, 2921 (1975).
   Na - Ar     : M. M. Francl, W. J. Pietro, W. J. Hehre, J. S. Binkley, M. S. Gordon, 
                 D. J. DeFrees and J. A. Pople, J. Chem. Phys. 77, 3654 (1982).
   K - Zn      : V. A. Rassolov, J. A. Pople, M. A. Ratner, and T. L. Windus, J. Chem. Phys. 109, 1223 (1998).

================================================================================
                                        WARNINGS
                       Please study these warnings very carefully!
================================================================================


WARNING: Geometry Optimization
  ===> : Switching off AutoStart
         For restart on a previous wavefunction, please use MOREAD

INFO   : the flag for use of LIBINT has been found!

================================================================================
                                       INPUT FILE
================================================================================
NAME = project_8053/ensemble_240_225.inp
|  1> # Test redundant internal optimization
|  2> #
|  3> ! RKS B3LYP  Opt TightSCF SmallPrint
|  4> 
|  5> %basis
|  6>         Basis "6-31G"
|  7> end
|  8> 
|  9> %geom
| 10> Constraints
| 11> { D 4  0  15  12  240.0   C } # D for Dihedral angle
| 12> { D 0  15  12  16  225.0   C } # D for Dihedral angle
| 13> { D 0  4  3  2   C } # D for Dihedral angle
| 14> { D 4  3  2  1   C } # D for Dihedral angle
| 15> { D 3  2  1  0   C } # D for Dihedral angle
| 16> { D 2  1  0  4   C } # D for Dihedral angle
| 17> { D 1  0  4  3   C } # D for Dihedral angle
| 18> { D 16  20  19  18   C } # D for Dihedral angle
| 19> { D 20  19  18  17   C } # D for Dihedral angle
| 20> { D 19  18  17  16   C } # D for Dihedral angle
| 21> { D 18  17  16  20   C } # D for Dihedral angle
| 22> { D 17  16  20  19   C } # D for Dihedral angle
| 23> { D 15  12  16  20   C } # D for Dihedral angle
| 24> end
| 25> end
| 26> 
| 27> 
| 28> #%pal 
| 29> #nprocs 8
| 30> #end
| 31> 
| 32> * xyz 0 1
| 33> C  -21.048   26.222   46.251
| 34> C  -20.361   27.558   45.944
| 35> C  -20.329   28.222   47.341
| 36> C  -20.110   27.022   48.296
| 37> O  -20.473   25.807   47.535
| 38> H  -20.833   25.428   45.533
| 39> H  -19.344   27.382   45.576
| 40> H  -20.898   28.157   45.201
| 41> H  -19.543   28.978   47.434
| 42> H  -21.289   28.710   47.548
| 43> H  -20.733   27.082   49.195
| 44> H  -19.064   26.913   48.597
| 45> C  -23.430   25.483   45.442
| 46> H  -22.779   25.054   44.670
| 47> H  -23.875   24.657   46.012
| 48> O  -22.586   26.394   46.375
| 49> C  -24.585   26.248   44.739
| 50> C  -25.464   25.298   43.919
| 51> C  -26.349   24.663   45.018
| 52> C  -26.556   25.827   46.019
| 53> O  -25.500   26.821   45.732
| 54> H  -24.167   27.082   44.170
| 55> H  -26.077   25.867   43.211
| 56> O  -24.647   24.245   43.121
| 57> H  -27.295   24.273   44.630
| 58> H  -25.816   23.832   45.497
| 59> H  -26.469   25.503   47.063
| 60> H  -27.517   26.329   45.883
| 61> H  -24.026   23.661   43.809
| 62> *
| 63> 
| 64>                          ****END OF INPUT****
================================================================================

                       *****************************
                       * Geometry Optimization Run *
                       *****************************

Geometry optimization settings:
Update method            Update   .... BFGS
Choice of coordinates    CoordSys .... Z-matrix Internals
Initial Hessian          InHess   .... Almoef's Model

Convergence Tolerances:
Energy Change            TolE     ....  5.0000e-06 Eh
Max. Gradient            TolMAXG  ....  3.0000e-04 Eh/bohr
RMS Gradient             TolRMSG  ....  1.0000e-04 Eh/bohr
Max. Displacement        TolMAXD  ....  4.0000e-03 bohr
RMS Displacement         TolRMSD  ....  2.0000e-03 bohr
Strict Convergence                ....  False
------------------------------------------------------------------------------
                        ORCA OPTIMIZATION COORDINATE SETUP
------------------------------------------------------------------------------

The optimization will be done in new redundant internal coordinates
Making redundant internal coordinates   ...  (new redundants) done
Evaluating the initial hessian          ...  (Almloef) done
Evaluating the coordinates              ...  done
Calculating the B-matrix                .... done
Calculating the G-matrix                .... done
Diagonalizing the G-matrix              .... done
Imposing constraints:
 Iter   0:  RMS(Cart)=    0.0001742485 RMS(Int)=    0.0000614421
 Iter   1:  RMS(Cart)=    0.0000873990 RMS(Int)=    0.0000333585
 Iter   2:  RMS(Cart)=    0.0000458976 RMS(Int)=    0.0000198323
 Iter   3:  RMS(Cart)=    0.0000254520 RMS(Int)=    0.0000129882
 Iter   4:  RMS(Cart)=    0.0000149416 RMS(Int)=    0.0000093212
 Iter   5:  RMS(Cart)=    0.0000092480 RMS(Int)=    0.0000072669
 Iter   6:  RMS(Cart)=    0.0000059908 RMS(Int)=    0.0000060849
 Iter   7:  RMS(Cart)=    0.0000040367 RMS(Int)=    0.0000053879
 Iter   8:  RMS(Cart)=    0.0000028236 RMS(Int)=    0.0000049587
 Iter   9:  RMS(Cart)=    0.0000020562 RMS(Int)=    0.0000046746
 Iter  10:  RMS(Cart)=    0.0000015685 RMS(Int)=    0.0000044682
 Iter  11:  RMS(Cart)=    0.0000012602 RMS(Int)=    0.0000043036
 Iter  12:  RMS(Cart)=    0.0000010661 RMS(Int)=    0.0000041624
 Iter  13:  RMS(Cart)=    0.0000009429 RMS(Int)=    0.0000040347
 Iter  14:  RMS(Cart)=    0.0000008624 RMS(Int)=    0.0000039158
 Iter  15:  RMS(Cart)=    0.0000008069 RMS(Int)=    0.0000038029
 Iter  16:  RMS(Cart)=    0.0000007659 RMS(Int)=    0.0000036947
 Iter  17:  RMS(Cart)=    0.0000007334 RMS(Int)=    0.0000035905
 Iter  18:  RMS(Cart)=    0.0000007061 RMS(Int)=    0.0000034898
 Iter  19:  RMS(Cart)=    0.0000006820 RMS(Int)=    0.0000033925
 Iter  20:  RMS(Cart)=    0.0000006600 RMS(Int)=    0.0000032982
 Iter  21:  RMS(Cart)=    0.0000006396 RMS(Int)=    0.0000032069
 Iter  22:  RMS(Cart)=    0.0000006204 RMS(Int)=    0.0000031185
 Iter  23:  RMS(Cart)=    0.0000006020 RMS(Int)=    0.0000030328
 Iter  24:  RMS(Cart)=    0.0000005845 RMS(Int)=    0.0000029497
 Iter  25:  RMS(Cart)=    0.0000005676 RMS(Int)=    0.0000028691
 Iter  26:  RMS(Cart)=    0.0000005514 RMS(Int)=    0.0000027911
 Iter  27:  RMS(Cart)=    0.0000005357 RMS(Int)=    0.0000027154
 Iter  28:  RMS(Cart)=    0.0000005205 RMS(Int)=    0.0000026420
 Iter  29:  RMS(Cart)=    0.0000005058 RMS(Int)=    0.0000025709
 Iter  30:  RMS(Cart)=    0.0000004916 RMS(Int)=    0.0000025019
 Iter  31:  RMS(Cart)=    0.0000004779 RMS(Int)=    0.0000024350
 Iter  32:  RMS(Cart)=    0.0000004645 RMS(Int)=    0.0000023701
 Iter  33:  RMS(Cart)=    0.0000004516 RMS(Int)=    0.0000023071
 Iter  34:  RMS(Cart)=    0.0000004390 RMS(Int)=    0.0000022461
 Iter  35:  RMS(Cart)=    0.0000004269 RMS(Int)=    0.0000021869
 Iter  36:  RMS(Cart)=    0.0000004151 RMS(Int)=    0.0000021294
 Iter  37:  RMS(Cart)=    0.0000004037 RMS(Int)=    0.0000020737
 Iter  38:  RMS(Cart)=    0.0000003926 RMS(Int)=    0.0000020196
 Iter  39:  RMS(Cart)=    0.0000003818 RMS(Int)=    0.0000019671
 Iter  40:  RMS(Cart)=    0.0000003714 RMS(Int)=    0.0000019162
 Iter  41:  RMS(Cart)=    0.0000003613 RMS(Int)=    0.0000018668
 Iter  42:  RMS(Cart)=    0.0000003514 RMS(Int)=    0.0000018188
 Iter  43:  RMS(Cart)=    0.0000003419 RMS(Int)=    0.0000017723
 Iter  44:  RMS(Cart)=    0.0000003327 RMS(Int)=    0.0000017271
 Iter  45:  RMS(Cart)=    0.0000003237 RMS(Int)=    0.0000016832
 Iter  46:  RMS(Cart)=    0.0000003150 RMS(Int)=    0.0000016406
 Iter  47:  RMS(Cart)=    0.0000003065 RMS(Int)=    0.0000015993
 Iter  48:  RMS(Cart)=    0.0000002983 RMS(Int)=    0.0000015591
 Iter  49:  RMS(Cart)=    0.0000002903 RMS(Int)=    0.0000015201
 Iter  50:  RMS(Cart)=    0.0000002826 RMS(Int)=    0.0000014823
 Iter  51:  RMS(Cart)=    0.0000002751 RMS(Int)=    0.0000014455
 Iter  52:  RMS(Cart)=    0.0000002678 RMS(Int)=    0.0000014098
 Iter  53:  RMS(Cart)=    0.0000002607 RMS(Int)=    0.0000013751
 Iter  54:  RMS(Cart)=    0.0000002538 RMS(Int)=    0.0000013414
 Iter  55:  RMS(Cart)=    0.0000002472 RMS(Int)=    0.0000013087
 Iter  56:  RMS(Cart)=    0.0000002407 RMS(Int)=    0.0000012769
 Iter  57:  RMS(Cart)=    0.0000002344 RMS(Int)=    0.0000012460
 Iter  58:  RMS(Cart)=    0.0000002283 RMS(Int)=    0.0000012160
 Iter  59:  RMS(Cart)=    0.0000002223 RMS(Int)=    0.0000011868
 Iter  60:  RMS(Cart)=    0.0000002165 RMS(Int)=    0.0000011585
 Iter  61:  RMS(Cart)=    0.0000002109 RMS(Int)=    0.0000011310
 Iter  62:  RMS(Cart)=    0.0000002055 RMS(Int)=    0.0000011042
 Iter  63:  RMS(Cart)=    0.0000002002 RMS(Int)=    0.0000010782
 Iter  64:  RMS(Cart)=    0.0000001950 RMS(Int)=    0.0000010529
 Iter  65:  RMS(Cart)=    0.0000001900 RMS(Int)=    0.0000010283
 Iter  66:  RMS(Cart)=    0.0000001852 RMS(Int)=    0.0000010044
 Iter  67:  RMS(Cart)=    0.0000001805 RMS(Int)=    0.0000009812
 Iter  68:  RMS(Cart)=    0.0000001759 RMS(Int)=    0.0000009586
 Iter  69:  RMS(Cart)=    0.0000001714 RMS(Int)=    0.0000009367
 Iter  70:  RMS(Cart)=    0.0000001671 RMS(Int)=    0.0000009153
 Iter  71:  RMS(Cart)=    0.0000001629 RMS(Int)=    0.0000008945
 Iter  72:  RMS(Cart)=    0.0000001588 RMS(Int)=    0.0000008743
 Iter  73:  RMS(Cart)=    0.0000001548 RMS(Int)=    0.0000008547
 Iter  74:  RMS(Cart)=    0.0000001509 RMS(Int)=    0.0000008356
 Iter  75:  RMS(Cart)=    0.0000001471 RMS(Int)=    0.0000008170
 Iter  76:  RMS(Cart)=    0.0000001435 RMS(Int)=    0.0000007989
 Iter  77:  RMS(Cart)=    0.0000001399 RMS(Int)=    0.0000007813
 Iter  78:  RMS(Cart)=    0.0000001364 RMS(Int)=    0.0000007642
 Iter  79:  RMS(Cart)=    0.0000001331 RMS(Int)=    0.0000007475
 Iter  80:  RMS(Cart)=    0.0000001298 RMS(Int)=    0.0000007313
 Iter  81:  RMS(Cart)=    0.0000001266 RMS(Int)=    0.0000007155
 Iter  82:  RMS(Cart)=    0.0000001235 RMS(Int)=    0.0000007002
 Iter  83:  RMS(Cart)=    0.0000001205 RMS(Int)=    0.0000006852
 Iter  84:  RMS(Cart)=    0.0000001175 RMS(Int)=    0.0000006707
 Iter  85:  RMS(Cart)=    0.0000001147 RMS(Int)=    0.0000006565
 Iter  86:  RMS(Cart)=    0.0000001119 RMS(Int)=    0.0000006427
 Iter  87:  RMS(Cart)=    0.0000001092 RMS(Int)=    0.0000006293
 Iter  88:  RMS(Cart)=    0.0000001066 RMS(Int)=    0.0000006162
 Iter  89:  RMS(Cart)=    0.0000001040 RMS(Int)=    0.0000006034
 Iter  90:  RMS(Cart)=    0.0000001015 RMS(Int)=    0.0000005910
 Iter  91:  RMS(Cart)=    0.0000000991 RMS(Int)=    0.0000005790
 Iter  92:  RMS(Cart)=    0.0000000967 RMS(Int)=    0.0000005672
 Iter  93:  RMS(Cart)=    0.0000000944 RMS(Int)=    0.0000005557
 Iter  94:  RMS(Cart)=    0.0000000922 RMS(Int)=    0.0000005445
 Iter  95:  RMS(Cart)=    0.0000000900 RMS(Int)=    0.0000005337
 Iter  96:  RMS(Cart)=    0.0000000879 RMS(Int)=    0.0000005230
 Iter  97:  RMS(Cart)=    0.0000000858 RMS(Int)=    0.0000005127
 Iter  98:  RMS(Cart)=    0.0000000838 RMS(Int)=    0.0000005026
 Iter  99:  RMS(Cart)=    0.0000000819 RMS(Int)=    0.0000004928
 RMS(Cart) too big - taking linear step, building new B-matrix and trying again
Imposing constraints:
 Iter   0:  RMS(Cart)=    0.0000873997 RMS(Int)=    0.0000333588
 Iter   1:  RMS(Cart)=    0.0000458980 RMS(Int)=    0.0000198324
 Iter   2:  RMS(Cart)=    0.0000254523 RMS(Int)=    0.0000129880
 Iter   3:  RMS(Cart)=    0.0000149417 RMS(Int)=    0.0000093209
 Iter   4:  RMS(Cart)=    0.0000092481 RMS(Int)=    0.0000072664
 Iter   5:  RMS(Cart)=    0.0000059909 RMS(Int)=    0.0000060842
 Iter   6:  RMS(Cart)=    0.0000040368 RMS(Int)=    0.0000053872
 Iter   7:  RMS(Cart)=    0.0000028236 RMS(Int)=    0.0000049579
 Iter   8:  RMS(Cart)=    0.0000020562 RMS(Int)=    0.0000046737
 Iter   9:  RMS(Cart)=    0.0000015685 RMS(Int)=    0.0000044673
 Iter  10:  RMS(Cart)=    0.0000012601 RMS(Int)=    0.0000043028
 Iter  11:  RMS(Cart)=    0.0000010660 RMS(Int)=    0.0000041615
 Iter  12:  RMS(Cart)=    0.0000009428 RMS(Int)=    0.0000040339
 Iter  13:  RMS(Cart)=    0.0000008623 RMS(Int)=    0.0000039149
 Iter  14:  RMS(Cart)=    0.0000008068 RMS(Int)=    0.0000038020
 Iter  15:  RMS(Cart)=    0.0000007658 RMS(Int)=    0.0000036939
 Iter  16:  RMS(Cart)=    0.0000007333 RMS(Int)=    0.0000035897
 Iter  17:  RMS(Cart)=    0.0000007059 RMS(Int)=    0.0000034891
 Iter  18:  RMS(Cart)=    0.0000006818 RMS(Int)=    0.0000033917
 Iter  19:  RMS(Cart)=    0.0000006599 RMS(Int)=    0.0000032975
 Iter  20:  RMS(Cart)=    0.0000006395 RMS(Int)=    0.0000032062
 Iter  21:  RMS(Cart)=    0.0000006202 RMS(Int)=    0.0000031177
 Iter  22:  RMS(Cart)=    0.0000006019 RMS(Int)=    0.0000030320
 Iter  23:  RMS(Cart)=    0.0000005844 RMS(Int)=    0.0000029490
 Iter  24:  RMS(Cart)=    0.0000005675 RMS(Int)=    0.0000028684
 Iter  25:  RMS(Cart)=    0.0000005513 RMS(Int)=    0.0000027904
 Iter  26:  RMS(Cart)=    0.0000005356 RMS(Int)=    0.0000027147
 Iter  27:  RMS(Cart)=    0.0000005204 RMS(Int)=    0.0000026413
 Iter  28:  RMS(Cart)=    0.0000005057 RMS(Int)=    0.0000025702
 Iter  29:  RMS(Cart)=    0.0000004915 RMS(Int)=    0.0000025012
 Iter  30:  RMS(Cart)=    0.0000004777 RMS(Int)=    0.0000024343
 Iter  31:  RMS(Cart)=    0.0000004644 RMS(Int)=    0.0000023695
 Iter  32:  RMS(Cart)=    0.0000004515 RMS(Int)=    0.0000023065
 Iter  33:  RMS(Cart)=    0.0000004389 RMS(Int)=    0.0000022455
 Iter  34:  RMS(Cart)=    0.0000004268 RMS(Int)=    0.0000021863
 Iter  35:  RMS(Cart)=    0.0000004150 RMS(Int)=    0.0000021288
 Iter  36:  RMS(Cart)=    0.0000004036 RMS(Int)=    0.0000020731
 Iter  37:  RMS(Cart)=    0.0000003925 RMS(Int)=    0.0000020190
 Iter  38:  RMS(Cart)=    0.0000003817 RMS(Int)=    0.0000019666
 Iter  39:  RMS(Cart)=    0.0000003713 RMS(Int)=    0.0000019156
 Iter  40:  RMS(Cart)=    0.0000003612 RMS(Int)=    0.0000018662
 Iter  41:  RMS(Cart)=    0.0000003514 RMS(Int)=    0.0000018183
 Iter  42:  RMS(Cart)=    0.0000003418 RMS(Int)=    0.0000017717
 Iter  43:  RMS(Cart)=    0.0000003326 RMS(Int)=    0.0000017265
 Iter  44:  RMS(Cart)=    0.0000003236 RMS(Int)=    0.0000016827
 Iter  45:  RMS(Cart)=    0.0000003149 RMS(Int)=    0.0000016401
 Iter  46:  RMS(Cart)=    0.0000003064 RMS(Int)=    0.0000015988
 Iter  47:  RMS(Cart)=    0.0000002982 RMS(Int)=    0.0000015586
 Iter  48:  RMS(Cart)=    0.0000002903 RMS(Int)=    0.0000015196
 Iter  49:  RMS(Cart)=    0.0000002825 RMS(Int)=    0.0000014818
 Iter  50:  RMS(Cart)=    0.0000002750 RMS(Int)=    0.0000014450
 Iter  51:  RMS(Cart)=    0.0000002677 RMS(Int)=    0.0000014093
 Iter  52:  RMS(Cart)=    0.0000002607 RMS(Int)=    0.0000013747
 Iter  53:  RMS(Cart)=    0.0000002538 RMS(Int)=    0.0000013410
 Iter  54:  RMS(Cart)=    0.0000002471 RMS(Int)=    0.0000013083
 Iter  55:  RMS(Cart)=    0.0000002406 RMS(Int)=    0.0000012765
 Iter  56:  RMS(Cart)=    0.0000002343 RMS(Int)=    0.0000012456
 Iter  57:  RMS(Cart)=    0.0000002282 RMS(Int)=    0.0000012156
 Iter  58:  RMS(Cart)=    0.0000002223 RMS(Int)=    0.0000011864
 Iter  59:  RMS(Cart)=    0.0000002165 RMS(Int)=    0.0000011581
 Iter  60:  RMS(Cart)=    0.0000002109 RMS(Int)=    0.0000011306
 Iter  61:  RMS(Cart)=    0.0000002054 RMS(Int)=    0.0000011038
 Iter  62:  RMS(Cart)=    0.0000002001 RMS(Int)=    0.0000010778
 Iter  63:  RMS(Cart)=    0.0000001950 RMS(Int)=    0.0000010525
 Iter  64:  RMS(Cart)=    0.0000001900 RMS(Int)=    0.0000010280
 Iter  65:  RMS(Cart)=    0.0000001851 RMS(Int)=    0.0000010041
 Iter  66:  RMS(Cart)=    0.0000001804 RMS(Int)=    0.0000009808
CONVERGED
Small eigenvalue found = 7.614e-03
Small eigenvalue found = 1.694e-02
Small eigenvalue found = 1.893e-02
Small eigenvalue found = 2.723e-02
The first mode is                       ....   91
The number of degrees of freedom        ....   81
Storing new coordinates                 .... done

    -----------------------------------------------------------------
                    Redundant Internal Coordinates


    -----------------------------------------------------------------
         Definition                    Initial Value    Approx d2E/dq
    -----------------------------------------------------------------
      1. B(C   1,C   0)                  1.5333         0.369027   
      2. B(C   2,C   1)                  1.5471         0.350825   
      3. B(C   3,C   2)                  1.5492         0.348147   
      4. B(O   4,C   0)                  1.4668         0.422031   
      5. B(O   4,C   3)                  1.4789         0.403699   
      6. B(H   5,C   0)                  1.0919         0.357632   
      7. B(H   6,C   1)                  1.0958         0.352561   
      8. B(H   7,C   1)                  1.0951         0.353431   
      9. B(H   8,C   2)                  1.0945         0.354166   
     10. B(H   9,C   2)                  1.0966         0.351438   
     11. B(H  10,C   3)                  1.0954         0.353010   
     12. B(H  11,C   3)                  1.0939         0.354989   
     13. B(H  13,C  12)                  1.0972         0.350713   
     14. B(H  14,C  12)                  1.0978         0.349907   
     15. B(O  15,C   0)                  1.5525         0.307993   
     16. B(O  15,C  12)                  1.5533         0.307141   
     17. B(C  16,C  12)                  1.5535         0.342638   
     18. B(C  17,C  16)                  1.5322         0.370610   
     19. B(C  18,C  17)                  1.5473         0.350524   
     20. B(C  19,C  18)                  1.5491         0.348246   
     21. B(O  20,C  16)                  1.4668         0.421979   
     22. B(O  20,C  19)                  1.4784         0.404489   
     23. B(H  21,C  16)                  1.0927         0.356517   
     24. B(H  22,C  17)                  1.0958         0.352499   
     25. B(O  23,C  17)                  1.5534         0.307012   
     26. B(H  24,C  18)                  1.0943         0.354416   
     27. B(H  25,C  18)                  1.0973         0.350557   
     28. B(H  26,C  19)                  1.0966         0.351504   
     29. B(H  27,C  19)                  1.0927         0.356529   
     30. B(H  28,O  23)                  1.0955         0.316113   
     31. A(O   4,C   0,H   5)          107.0166         0.328541   
     32. A(C   1,C   0,O  15)          111.3062         0.348740   
     33. A(C   1,C   0,O   4)          104.2508         0.367935   
     34. A(O   4,C   0,O  15)          110.4722         0.354548   
     35. A(C   1,C   0,H   5)          114.4408         0.323302   
     36. A(H   5,C   0,O  15)          109.1540         0.312058   
     37. A(C   0,C   1,C   2)          101.6783         0.358729   
     38. A(C   2,C   1,H   7)          112.8334         0.320016   
     39. A(C   2,C   1,H   6)          110.6701         0.319888   
     40. A(C   0,C   1,H   6)          110.0681         0.322546   
     41. A(H   6,C   1,H   7)          108.3679         0.289027   
     42. A(C   0,C   1,H   7)          113.1246         0.322677   
     43. A(C   1,C   2,H   8)          112.8312         0.320125   
     44. A(C   1,C   2,C   3)          103.1286         0.355196   
     45. A(C   1,C   2,H   9)          110.0795         0.319721   
     46. A(C   3,C   2,H   9)          110.6147         0.319321   
     47. A(C   3,C   2,H   8)          112.4032         0.319725   
     48. A(H   8,C   2,H   9)          107.7731         0.288977   
     49. A(O   4,C   3,H  10)          109.1301         0.325449   
     50. A(C   2,C   3,H  10)          112.5254         0.319554   
     51. A(C   2,C   3,O   4)          106.5267         0.361529   
     52. A(O   4,C   3,H  11)          107.1240         0.325748   
     53. A(H  10,C   3,H  11)          108.8727         0.289284   
     54. A(C   2,C   3,H  11)          112.4569         0.319846   
     55. A(C   0,O   4,C   3)          108.3128         0.371320   
     56. A(H  14,C  12,C  16)          107.7125         0.318264   
     57. A(H  13,C  12,H  14)          108.1584         0.288337   
     58. A(H  13,C  12,O  15)          109.2439         0.310934   
     59. A(H  14,C  12,O  15)          110.4644         0.310819   
     60. A(O  15,C  12,C  16)          112.7664         0.344255   
     61. A(H  13,C  12,C  16)          108.3676         0.318384   
     62. A(C   0,O  15,C  12)          115.1708         0.336120   
     63. A(C  12,C  16,C  17)          111.3091         0.357551   
     64. A(C  12,C  16,O  20)          110.4743         0.363282   
     65. A(C  17,C  16,O  20)          104.2798         0.368198   
     66. A(C  12,C  16,H  21)          109.0903         0.319238   
     67. A(C  17,C  16,H  21)          114.4572         0.323364   
     68. A(O  20,C  16,H  21)          107.0357         0.328366   
     69. A(C  16,C  17,C  18)          101.6805         0.358938   
     70. A(C  16,C  17,H  22)          110.1672         0.322763   
     71. A(C  18,C  17,H  22)          110.6116         0.319834   
     72. A(C  16,C  17,O  23)          113.1725         0.348805   
     73. A(C  18,C  17,O  23)          112.7987         0.345549   
     74. A(H  22,C  17,O  23)          108.3177         0.311168   
     75. A(C  17,C  18,C  19)          103.1218         0.355162   
     76. A(C  17,C  18,H  24)          112.8832         0.320117   
     77. A(C  19,C  18,H  24)          112.4189         0.319776   
     78. A(C  17,C  18,H  25)          110.0603         0.319545   
     79. A(C  19,C  18,H  25)          110.6019         0.319205   
     80. A(H  24,C  18,H  25)          107.7447         0.288895   
     81. A(C  18,C  19,O  20)          106.5181         0.361667   
     82. A(C  18,C  19,H  26)          112.4937         0.319346   
     83. A(O  20,C  19,H  26)          109.0757         0.325324   
     84. A(C  18,C  19,H  27)          112.4758         0.320087   
     85. A(O  20,C  19,H  27)          107.1668         0.326085   
     86. A(H  26,C  19,H  27)          108.9054         0.289286   
     87. A(C  16,O  20,C  19)          108.3211         0.371437   
     88. A(C  17,O  23,H  28)          109.6873         0.303231   
     89. D(H   7,C   1,C   0,H   5)     82.1535         0.010890   
     90. D(C   2,C   1,C   0,O  15)     79.0888         0.010890   
     91. D(H   7,C   1,C   0,O  15)    -42.1860         0.010890   
     92. D(H   6,C   1,C   0,O   4)     77.3246         0.010890   
     93. D(H   6,C   1,C   0,O  15)   -163.5721         0.010890   
     94. D(H   6,C   1,C   0,H   5)    -39.2326         0.010890   
     95. D(H   7,C   1,C   0,O   4)   -161.2893         0.010890   
     96. D(C   2,C   1,C   0,O   4)    -40.0146         0.010890 C 
     97. D(C   2,C   1,C   0,H   5)   -156.5718         0.010890   
     98. D(H   9,C   2,C   1,H   6)    160.0777         0.009912   
     99. D(H   8,C   2,C   1,C   0)    156.5478         0.009912   
    100. D(H   8,C   2,C   1,H   6)     39.6450         0.009912   
    101. D(C   3,C   2,C   1,C   0)     35.0268         0.009912 C 
    102. D(H   8,C   2,C   1,H   7)    -81.9750         0.009912   
    103. D(H   9,C   2,C   1,C   0)    -83.0196         0.009912   
    104. D(C   3,C   2,C   1,H   6)    -81.8760         0.009912   
    105. D(H   9,C   2,C   1,H   7)     38.4577         0.009912   
    106. D(C   3,C   2,C   1,H   7)    156.5040         0.009912   
    107. D(H  11,C   3,C   2,H   9)   -143.4626         0.009774   
    108. D(O   4,C   3,C   2,H   8)   -140.0068         0.009774   
    109. D(O   4,C   3,C   2,H   9)     99.4741         0.009774   
    110. D(H  10,C   3,C   2,C   1)   -137.7432         0.009774   
    111. D(H  10,C   3,C   2,H   8)    100.4467         0.009774   
    112. D(H  10,C   3,C   2,H   9)    -20.0724         0.009774   
    113. D(H  11,C   3,C   2,C   1)     98.8666         0.009774   
    114. D(O   4,C   3,C   2,C   1)    -18.1967         0.009774 C 
    115. D(H  11,C   3,C   2,H   8)    -22.9436         0.009774   
    116. D(C   3,O   4,C   0,C   1)     29.5920         0.014035 C 
    117. D(C   3,O   4,C   0,H   5)    151.2040         0.014035   
    118. D(C   3,O   4,C   0,O  15)    -90.0765         0.014035   
    119. D(C   0,O   4,C   3,C   2)     -6.8730         0.012866 C 
    120. D(C   0,O   4,C   3,H  10)    114.8547         0.012866   
    121. D(C   0,O   4,C   3,H  11)   -127.4270         0.012866   
    122. D(C   0,O  15,C  12,C  16)   -135.0000         0.007756 C 
    123. D(C  12,O  15,C   0,O   4)   -120.0000         0.007793 C 
    124. D(C  12,O  15,C   0,H   5)     -2.5899         0.007793   
    125. D(C   0,O  15,C  12,H  14)    104.4171         0.007756   
    126. D(C   0,O  15,C  12,H  13)    -14.4382         0.007756   
    127. D(C  12,O  15,C   0,C   1)    124.6819         0.007793   
    128. D(C  17,C  16,C  12,H  13)     63.5986         0.009493   
    129. D(H  21,C  16,C  12,H  14)    179.5590         0.009493   
    130. D(C  17,C  16,C  12,O  15)   -175.3392         0.009493   
    131. D(O  20,C  16,C  12,H  13)    178.9551         0.009493   
    132. D(O  20,C  16,C  12,H  14)     62.1628         0.009493   
    133. D(O  20,C  16,C  12,O  15)    -59.9827         0.009493 C 
    134. D(C  17,C  16,C  12,H  14)    -53.1938         0.009493   
    135. D(H  21,C  16,C  12,H  13)    -63.6486         0.009493   
    136. D(H  21,C  16,C  12,O  15)     57.4135         0.009493   
    137. D(C  18,C  17,C  16,C  12)     79.1448         0.010978   
    138. D(C  18,C  17,C  16,O  20)    -39.9795         0.010978 C 
    139. D(C  18,C  17,C  16,H  21)   -156.5866         0.010978   
    140. D(H  22,C  17,C  16,C  12)   -163.5402         0.010978   
    141. D(H  22,C  17,C  16,O  20)     77.3355         0.010978   
    142. D(H  22,C  17,C  16,H  21)    -39.2715         0.010978   
    143. D(O  23,C  17,C  16,C  12)    -42.1139         0.010978   
    144. D(O  23,C  17,C  16,O  20)   -161.2381         0.010978   
    145. D(O  23,C  17,C  16,H  21)     82.1548         0.010978   
    146. D(H  24,C  18,C  17,O  23)    -81.8951         0.009897   
    147. D(C  19,C  18,C  17,H  22)    -81.9698         0.009897   
    148. D(C  19,C  18,C  17,O  23)    156.5417         0.009897   
    149. D(H  24,C  18,C  17,C  16)    156.5865         0.009897   
    150. D(C  19,C  18,C  17,C  16)     35.0232         0.009897 C 
    151. D(H  24,C  18,C  17,H  22)     39.5935         0.009897   
    152. D(H  25,C  18,C  17,C  16)    -82.9958         0.009897   
    153. D(H  25,C  18,C  17,H  22)    160.0112         0.009897   
    154. D(H  25,C  18,C  17,O  23)     38.5227         0.009897   
    155. D(H  27,C  19,C  18,H  25)   -143.4570         0.009779   
    156. D(O  20,C  19,C  18,H  24)   -140.0927         0.009779   
    157. D(O  20,C  19,C  18,H  25)     99.4229         0.009779   
    158. D(H  26,C  19,C  18,C  17)   -137.6719         0.009779   
    159. D(H  26,C  19,C  18,H  24)    100.4513         0.009779   
    160. D(H  26,C  19,C  18,H  25)    -20.0331         0.009779   
    161. D(H  27,C  19,C  18,C  17)     98.9042         0.009779   
    162. D(O  20,C  19,C  18,C  17)    -18.2159         0.009779 C 
    163. D(H  27,C  19,C  18,H  24)    -22.9725         0.009779   
    164. D(C  19,O  20,C  16,C  12)    -90.1408         0.014032   
    165. D(C  19,O  20,C  16,C  17)     29.5489         0.014032 C 
    166. D(C  19,O  20,C  16,H  21)    151.2040         0.014032   
    167. D(C  16,O  20,C  19,C  18)     -6.8159         0.012915 C 
    168. D(C  16,O  20,C  19,H  26)    114.8381         0.012915   
    169. D(C  16,O  20,C  19,H  27)   -127.4100         0.012915   
    170. D(H  28,O  23,C  17,C  16)     57.6347         0.007750   
    171. D(H  28,O  23,C  17,C  18)    -57.1242         0.007750   
    172. D(H  28,O  23,C  17,H  22)   -179.9035         0.007750   
    -----------------------------------------------------------------

Number of atoms                         .... 29
Number of degrees of freedom            .... 172

Time needed for optimization step       :    13.23 sec

         *************************************************************
         *                GEOMETRY OPTIMIZATION CYCLE   1            *
         *************************************************************
---------------------------------
CARTESIAN COORDINATES (ANGSTROEM)
---------------------------------
  C    -21.048013   26.222193   46.250833
  C    -20.361169   27.558309   45.944041
  C    -20.329041   28.221977   47.341185
  C    -20.109816   27.021788   48.295899
  O    -20.472818   25.806920   47.534665
  H    -20.833044   25.428339   45.532662
  H    -19.344200   27.382481   45.575874
  H    -20.898312   28.157429   45.201241
  H    -19.543090   28.978019   47.434254
  H    -21.289055   28.709848   47.548420
  H    -20.732705   27.081539   49.194992
  H    -19.063769   26.912808   48.596742
  C    -23.430024   25.482884   45.442147
  H    -22.779065   25.053833   44.670140
  H    -23.874968   24.656922   46.012245
  O    -22.586020   26.393962   46.375067
  C    -24.584911   26.247863   44.738938
  C    -25.463919   25.297826   43.918997
  C    -26.349065   24.663064   45.018013
  C    -26.556053   25.827220   46.018835
  O    -25.499939   26.821091   45.731783
  H    -24.166791   27.081754   44.169867
  H    -26.076812   25.866778   43.210866
  O    -24.646942   24.244645   43.121212
  H    -27.295066   24.273092   44.629988
  H    -25.816177   23.832086   45.497176
  H    -26.469169   25.503358   47.062887
  H    -27.516998   26.329284   45.882684
  H    -24.026049   23.660688   43.809346

----------------------------
CARTESIAN COORDINATES (A.U.)
----------------------------
  NO LB      ZA    FRAG     MASS         X           Y           Z
   0 C     6.0000    0    12.011  -39.774980   49.552763   87.401408
   1 C     6.0000    0    12.011  -38.477034   52.077657   86.821654
   2 C     6.0000    0    12.011  -38.416319   53.331807   89.461875
   3 C     6.0000    0    12.011  -38.002045   51.063779   91.266023
   4 O     8.0000    0    15.999  -38.688019   48.768011   89.827499
   5 H     1.0000    0     1.008  -39.368748   48.052597   86.044261
   6 H     1.0000    0     1.008  -36.555240   51.745389   86.125921
   7 H     1.0000    0     1.008  -39.492086   53.209829   85.417966
   8 H     1.0000    0     1.008  -36.931087   54.760520   89.637750
   9 H     1.0000    0     1.008  -40.230484   54.253751   89.853492
  10 H     1.0000    0     1.008  -39.179135   51.176693   92.965063
  11 H     1.0000    0     1.008  -36.025302   50.857837   91.834533
  12 C     6.0000    0    12.011  -44.276328   48.155671   85.873213
  13 H     1.0000    0     1.008  -43.046195   47.344883   84.414331
  14 H     1.0000    0     1.008  -45.117152   46.594829   86.950542
  15 O     8.0000    0    15.999  -42.681392   49.877361   87.636175
  16 C     6.0000    0    12.011  -46.458748   49.601272   84.544341
  17 C     6.0000    0    12.011  -48.119833   47.805962   82.994877
  18 C     6.0000    0    12.011  -49.792517   46.606437   85.071716
  19 C     6.0000    0    12.011  -50.183667   48.806373   86.962995
  20 O     8.0000    0    15.999  -48.187901   50.684517   86.420546
  21 H     1.0000    0     1.008  -45.668617   51.177099   83.468952
  22 H     1.0000    0     1.008  -49.278032   48.881126   81.656703
  23 O     8.0000    0    15.999  -46.575970   45.815739   81.487282
  24 H     1.0000    0     1.008  -51.580200   45.869496   84.338454
  25 H     1.0000    0     1.008  -48.785504   45.036116   85.977202
  26 H     1.0000    0     1.008  -50.019481   48.194362   88.935968
  27 H     1.0000    0     1.008  -51.999591   49.755135   86.705707
  28 H     1.0000    0     1.008  -45.402653   44.712221   82.787665

--------------------------------
INTERNAL COORDINATES (ANGSTROEM)
--------------------------------
 C      0   0   0     0.000000000000     0.00000000     0.00000000
 C      1   0   0     1.533334275362     0.00000000     0.00000000
 C      2   1   0     1.547103422529   101.67907390     0.00000000
 C      3   2   1     1.549188819996   103.12737509    35.02687180
 O      1   2   3     1.466801281701   104.24948604   319.98542309
 H      1   2   3     1.091872245274   114.43876658   203.42640133
 H      2   1   3     1.095759553917   110.06782188   117.34000099
 H      2   1   3     1.095088580892   113.12442239   238.72597460
 H      3   2   1     1.094523183857   112.83161078   156.54780790
 H      3   2   1     1.096628013503   110.07982737   276.98070077
 H      4   3   2     1.095413164062   112.52534669   222.25678475
 H      4   3   2     1.093891219455   112.45670684    98.86663270
 C      6   1   2     2.599175830913    79.09917363   235.95714621
 H     13   6   1     1.097190047348    54.79689780   160.17900458
 H     13   6   1     1.097816469179   111.77183066   257.58586126
 O      1   2   3     1.552547583812   111.30349807    79.08752829
 C     13   6   1     1.553531139051   140.27388552    84.37913281
 C     17  13   6     1.532168724390   111.30822461   120.18209672
 C     18  17  13     1.547336744216   101.68076833    79.14422801
 C     19  18  17     1.549111358166   103.12138945    35.02324263
 O     17  13   6     1.466834346475   110.47444564   235.53757983
 H     17  13   6     1.092721831026   109.09104553   352.93556343
 H     18  17  13     1.095807464840   110.16707640   196.45955099
 O     18  17  13     1.553416235270   113.17243772   317.88586380
 H     19  18  17     1.094330845768   112.88329048   156.58647046
 H     19  18  17     1.097310803738   110.06040632   277.00429119
 H     20  19  18     1.096576946685   112.49368704   222.32803144
 H     20  19  18     1.092712679527   112.47574436    98.90421218
 H     24  18  17     1.095463828705   109.68734733    57.63474712

---------------------------
INTERNAL COORDINATES (A.U.)
---------------------------
 C      0   0   0     0.000000000000     0.00000000     0.00000000
 C      1   0   0     2.897581852189     0.00000000     0.00000000
 C      2   1   0     2.923601769431   101.67907390     0.00000000
 C      3   2   1     2.927542599525   103.12737509    35.02687180
 O      1   2   3     2.771852715300   104.24948604   319.98542309
 H      1   2   3     2.063339516798   114.43876658   203.42640133
 H      2   1   3     2.070685465531   110.06782188   117.34000099
 H      2   1   3     2.069417510270   113.12442239   238.72597460
 H      3   2   1     2.068349064717   112.83161078   156.54780790
 H      3   2   1     2.072326616307   110.07982737   276.98070077
 H      4   3   2     2.070030883569   112.52534669   222.25678475
 H      4   3   2     2.067154825070   112.45670684    98.86663270
 C      6   1   2     4.911730494332    79.09917363   235.95714621
 H     13   6   1     2.073388706352    54.79689780   160.17900458
 H     13   6   1     2.074572472056   111.77183066   257.58586126
 O      1   2   3     2.933889743286   111.30349807    79.08752829
 C     13   6   1     2.935748393324   140.27388552    84.37913281
 C     17  13   6     2.895379280057   111.30822461   120.18209672
 C     18  17  13     2.924042683521   101.68076833    79.14422801
 C     19  18  17     2.927396217881   103.12138945    35.02324263
 O     17  13   6     2.771915198668   110.47444564   235.53757983
 H     17  13   6     2.064945001195   109.09104553   352.93556343
 H     18  17  13     2.070776004055   110.16707640   196.45955099
 O     18  17  13     2.935531256647   113.17243772   317.88586380
 H     19  18  17     2.067985598405   112.88329048   156.58647046
 H     19  18  17     2.073616902858   110.06040632   277.00429119
 H     20  19  18     2.072230114005   112.49368704   222.32803144
 H     20  19  18     2.064927707370   112.47574436    98.90421218
 H     24  18  17     2.070126625868   109.68734733    57.63474712

---------------------
BASIS SET INFORMATION
---------------------
There are 3 groups of distinct atoms

 Group   1 Type C   : 10s4p contracted to 3s2p pattern {631/31}
 Group   2 Type O   : 10s4p contracted to 3s2p pattern {631/31}
 Group   3 Type H   : 4s contracted to 2s pattern {31}

Atom   0C    basis set group =>   1
Atom   1C    basis set group =>   1
Atom   2C    basis set group =>   1
Atom   3C    basis set group =>   1
Atom   4O    basis set group =>   2
Atom   5H    basis set group =>   3
Atom   6H    basis set group =>   3
Atom   7H    basis set group =>   3
Atom   8H    basis set group =>   3
Atom   9H    basis set group =>   3
Atom  10H    basis set group =>   3
Atom  11H    basis set group =>   3
Atom  12C    basis set group =>   1
Atom  13H    basis set group =>   3
Atom  14H    basis set group =>   3
Atom  15O    basis set group =>   2
Atom  16C    basis set group =>   1
Atom  17C    basis set group =>   1
Atom  18C    basis set group =>   1
Atom  19C    basis set group =>   1
Atom  20O    basis set group =>   2
Atom  21H    basis set group =>   3
Atom  22H    basis set group =>   3
Atom  23O    basis set group =>   2
Atom  24H    basis set group =>   3
Atom  25H    basis set group =>   3
Atom  26H    basis set group =>   3
Atom  27H    basis set group =>   3
Atom  28H    basis set group =>   3
------------------------------------------------------------------------------
                           ORCA GTO INTEGRAL CALCULATION
------------------------------------------------------------------------------

                         BASIS SET STATISTICS AND STARTUP INFO

 # of primitive gaussian shells          ...  246
 # of primitive gaussian functions       ...  350
 # of contracted shells                  ...   97
 # of contracted basis functions         ...  149
 Highest angular momentum                ...    1
 Maximum contraction depth               ...    6
 Integral package used                   ... LIBINT
 Integral threshhold            Thresh   ...  2.500e-11
 Primitive cut-off              TCut     ...  2.500e-12


------------------------------ INTEGRAL EVALUATION ----------------------------


 * One electron integrals 
 Pre-screening matrix                    ... done
 Shell pair data                         ... done (   0.002 sec)

-------------------------------------------------------------------------------
                                 ORCA SCF
-------------------------------------------------------------------------------

------------
SCF SETTINGS
------------
Hamiltonian:
 Density Functional     Method          .... DFT(GTOs)
 Exchange Functional    Exchange        .... B88
   X-Alpha parameter    XAlpha          ....  0.666667
   Becke's b parameter  XBeta           ....  0.004200
 Correlation Functional Correlation     .... LYP
 LDA part of GGA corr.  LDAOpt          .... VWN-5
 Gradients option       PostSCFGGA      .... off
 Hybrid DFT is turned on
   Fraction HF Exchange ScalHFX         ....  0.200000
   Scaling of DF-GGA-X  ScalDFX         ....  0.720000
   Scaling of DF-GGA-C  ScalDFC         ....  0.810000
   Scaling of DF-LDA-C  ScalLDAC        ....  1.000000
   Perturbative correction              ....  0.000000
   Density functional embedding theory  .... OFF
   NL short-range parameter             ....  4.800000


General Settings:
 Integral files         IntName         .... project_8053/ensemble_240_225
 Hartree-Fock type      HFTyp           .... RHF
 Total Charge           Charge          ....    0
 Multiplicity           Mult            ....    1
 Number of Electrons    NEL             ....  102
 Basis Dimension        Dim             ....  149
 Nuclear Repulsion      ENuc            ....    845.1579872974 Eh

Convergence Acceleration:
 DIIS                   CNVDIIS         .... on
   Start iteration      DIISMaxIt       ....    12
   Startup error        DIISStart       ....  0.200000
   # of expansion vecs  DIISMaxEq       ....     5
   Bias factor          DIISBfac        ....   1.050
   Max. coefficient     DIISMaxC        ....  10.000
 Newton-Raphson         CNVNR           .... off
 SOSCF                  CNVSOSCF        .... on
   Start iteration      SOSCFMaxIt      ....   150
   Startup grad/error   SOSCFStart      ....  0.003300
 Level Shifting         CNVShift        .... on
   Level shift para.    LevelShift      ....    0.2500
   Turn off err/grad.   ShiftErr        ....    0.0010
 Zerner damping         CNVZerner       .... off
 Static damping         CNVDamp         .... on
   Fraction old density DampFac         ....    0.7000
   Max. Damping (<1)    DampMax         ....    0.9800
   Min. Damping (>=0)   DampMin         ....    0.0000
   Turn off err/grad.   DampErr         ....    0.1000
 Fernandez-Rico         CNVRico         .... off

SCF Procedure:
 Maximum # iterations   MaxIter         ....   125
 SCF integral mode      SCFMode         .... Direct
   Integral package                     .... LIBINT
 Reset frequency        DirectResetFreq ....    20
 Integral Threshold     Thresh          ....  2.500e-11 Eh
 Primitive CutOff       TCut            ....  2.500e-12 Eh

Convergence Tolerance:
 Convergence Check Mode ConvCheckMode   .... Total+1el-Energy
 Convergence forced     ConvForced      .... 0
 Energy Change          TolE            ....  1.000e-08 Eh
 1-El. energy change                    ....  1.000e-05 Eh
 Orbital Gradient       TolG            ....  1.000e-05
 Orbital Rotation angle TolX            ....  1.000e-05
 DIIS Error             TolErr          ....  5.000e-07


Diagonalization of the overlap matrix:
Smallest eigenvalue                        ... 3.893e-03
Time for diagonalization                   ...    0.006 sec
Threshold for overlap eigenvalues          ... 1.000e-08
Number of eigenvalues below threshold      ... 0
Time for construction of square roots      ...    9.594 sec
Total time needed                          ...    9.674 sec

-------------------
DFT GRID GENERATION
-------------------

General Integration Accuracy     IntAcc      ...  4.340
Radial Grid Type                 RadialGrid  ... Gauss-Chebyshev
Angular Grid (max. acc.)         AngularGrid ... Lebedev-110
Angular grid pruning method      GridPruning ... 3 (G Style)
Weight generation scheme         WeightScheme... Becke
Basis function cutoff            BFCut       ...    1.0000e-11
Integration weight cutoff        WCut        ...    1.0000e-14
Grids for H and He will be reduced by one unit

# of grid points (after initial pruning)     ...  34472 (   0.0 sec)
# of grid points (after weights+screening)   ...  31090 (   0.2 sec)
nearest neighbour list constructed           ...    0.0 sec
Grid point re-assignment to atoms done       ...    0.0 sec
Grid point division into batches done        ...    0.0 sec
Reduced shell lists constructed in    0.3 sec

Total number of grid points                  ...    31090
Total number of batches                      ...      499
Average number of points per batch           ...       62
Average number of grid points per atom       ...     1072
Average number of shells per batch           ...    55.76 (57.49%)
Average number of basis functions per batch  ...    90.51 (60.75%)
Average number of large shells per batch     ...    39.12 (70.16%)
Average number of large basis fcns per batch ...    64.74 (71.52%)
Maximum spatial batch extension              ...  19.24, 20.09, 20.88 au
Average spatial batch extension              ...   3.28,  3.46,  3.43 au

Time for grid setup =    1.086 sec

------------------------------
INITIAL GUESS: MODEL POTENTIAL
------------------------------
Loading Hartree-Fock densities                     ... done
Calculating cut-offs                               ... done
Setting up the integral package                    ... done
Initializing the effective Hamiltonian             ... done
Starting the Coulomb interaction                   ... done (   0.3 sec)
Reading the grid                                   ... done
Mapping shells                                     ... done
Starting the XC term evaluation                    ... done (   0.4 sec)
  promolecular density results
     # of electrons  =    101.993245317
     EX              =    -83.664589776
     EC              =     -3.455886254
     EX+EC           =    -87.120476029
Transforming the Hamiltonian                       ... done (   0.2 sec)
Diagonalizing the Hamiltonian                      ... done (   0.0 sec)
Back transforming the eigenvectors                 ... done (   0.0 sec)
Now organizing SCF variables                       ... done
                      ------------------
                      INITIAL GUESS DONE (   4.3 sec)
                      ------------------
--------------
SCF ITERATIONS
--------------
ITER       Energy         Delta-E        Max-DP      RMS-DP      [F,P]     Damp
               ***  Starting incremental Fock matrix formation  ***
  0   -652.5243743410   0.000000000000 0.07400148  0.00313345  0.2263538 0.7000
  1   -652.6666995727  -0.142325231703 0.04196635  0.00213947  0.0897350 0.7000
                               ***Turning on DIIS***
  2   -652.7198137090  -0.053114136253 0.05832094  0.00337388  0.0297240 0.0000
  3   -652.8072149612  -0.087401252224 0.02976309  0.00142148  0.0484582 0.0000
  4   -652.8250374442  -0.017822482990 0.00842853  0.00043572  0.0096253 0.0000
  5   -652.8260859681  -0.001048523936 0.00271198  0.00013127  0.0043190 0.0000
                      *** Initiating the SOSCF procedure ***
                           *** Shutting down DIIS ***
                      *** Re-Reading the Fockian *** 
                      *** Removing any level shift *** 
ITER      Energy       Delta-E        Grad      Rot      Max-DP    RMS-DP
  6   -652.82615675  -0.0000707777  0.000189  0.000189  0.000895  0.000056
               *** Restarting incremental Fock matrix formation ***
  7   -652.82615954  -0.0000027956  0.000146  0.000242  0.001037  0.000037
  8   -652.82615644   0.0000031055  0.000269  0.000168  0.000739  0.000023
  9   -652.82616108  -0.0000046391  0.000024  0.000052  0.000224  0.000006
 10   -652.82616101   0.0000000614  0.000037  0.000031  0.000131  0.000004
 11   -652.82616114  -0.0000001226  0.000007  0.000009  0.000033  0.000001
 12   -652.82616113   0.0000000039  0.000010  0.000005  0.000020  0.000001
                  ***Gradient check signals convergence***
              ***Rediagonalizing the Fockian in SOSCF/NRSCF***

               *****************************************************
               *                     SUCCESS                       *
               *           SCF CONVERGED AFTER  13 CYCLES          *
               *****************************************************

Setting up the final grid:

General Integration Accuracy     IntAcc      ...  4.670
Radial Grid Type                 RadialGrid  ... Gauss-Chebyshev
Angular Grid (max. acc.)         AngularGrid ... Lebedev-302
Angular grid pruning method      GridPruning ... 3 (G Style)
Weight generation scheme         WeightScheme... Becke
Basis function cutoff            BFCut       ...    1.0000e-11
Integration weight cutoff        WCut        ...    1.0000e-14
Grids for H and He will be reduced by one unit

# of grid points (after initial pruning)     ... 135060 (   0.1 sec)
# of grid points (after weights+screening)   ... 119528 (   0.9 sec)
nearest neighbour list constructed           ...    0.0 sec
Grid point re-assignment to atoms done       ...    0.0 sec
Grid point division into batches done        ...    0.4 sec
Reduced shell lists constructed in    1.3 sec

Total number of grid points                  ...   119528
Total number of batches                      ...     1882
Average number of points per batch           ...       63
Average number of grid points per atom       ...     4122
Average number of shells per batch           ...    50.55 (52.11%)
Average number of basis functions per batch  ...    82.27 (55.22%)
Average number of large shells per batch     ...    35.08 (69.40%)
Average number of large basis fcns per batch ...    58.15 (70.68%)
Maximum spatial batch extension              ...  17.71, 20.22, 18.06 au
Average spatial batch extension              ...   2.17,  2.30,  2.24 au

Final grid set up in    8.4 sec
Final integration                            ... done (  12.4 sec)
Change in XC energy                          ...    -0.000437294
Integrated number of electrons               ...   102.000006014
Previous integrated no of electrons          ...   101.998855215

----------------
TOTAL SCF ENERGY
----------------

Total Energy       :         -652.82659843 Eh          -17764.31486 eV

Components:
Nuclear Repulsion  :          845.15798730 Eh           22997.91803 eV
Electronic Energy  :        -1497.98458573 Eh          -40762.23289 eV
One Electron Energy:        -2568.11081379 Eh          -69881.84797 eV
Two Electron Energy:         1070.12622806 Eh           29119.61508 eV

Virial components:
Potential Energy   :        -1301.74808442 Eh          -35422.36622 eV
Kinetic Energy     :          648.92148599 Eh           17658.05135 eV
Virial Ratio       :            2.00601785


DFT components:
N(Alpha)           :       51.000003007002 electrons
N(Beta)            :       51.000003007002 electrons
N(Total)           :      102.000006014004 electrons
E(X)               :      -67.585785126299 Eh       
E(C)               :       -4.067736189372 Eh       
E(XC)              :      -71.653521315671 Eh       
DFET-embed. en.    :        0.000000000000 Eh       

---------------
SCF CONVERGENCE
---------------

  Last Energy change         ...   -5.5155e-09  Tolerance :   1.0000e-08
  Last MAX-Density change    ...    2.4662e-06  Tolerance :   1.0000e-07
  Last RMS-Density change    ...    9.7937e-08  Tolerance :   5.0000e-09
  Last Orbital Gradient      ...    3.5875e-07  Tolerance :   1.0000e-05
  Last Orbital Rotation      ...    5.9057e-07  Tolerance :   1.0000e-05

             **** THE GBW FILE WAS UPDATED (project_8053/ensemble_240_225.gbw) ****
             **** DENSITY FILE WAS UPDATED (project_8053/ensemble_240_225.scfp) ****
             **** ENERGY FILE WAS UPDATED (project_8053/ensemble_240_225.en.tmp) ****
             **** THE GBW FILE WAS UPDATED (project_8053/ensemble_240_225.gbw) ****
             **** DENSITY FILE WAS UPDATED (project_8053/ensemble_240_225.scfp) ****
----------------
ORBITAL ENERGIES
----------------

  NO   OCC          E(Eh)            E(eV) 
   0   2.0000     -19.158926      -521.3409 
   1   2.0000     -19.143851      -520.9307 
   2   2.0000     -19.141585      -520.8690 
   3   2.0000     -19.139818      -520.8209 
   4   2.0000     -10.282468      -279.8002 
   5   2.0000     -10.253405      -279.0093 
   6   2.0000     -10.240058      -278.6461 
   7   2.0000     -10.237653      -278.5807 
   8   2.0000     -10.231054      -278.4011 
   9   2.0000     -10.222638      -278.1721 
  10   2.0000     -10.196404      -277.4583 
  11   2.0000     -10.188041      -277.2307 
  12   2.0000     -10.183779      -277.1147 
  13   2.0000      -1.030388       -28.0383 
  14   2.0000      -1.025853       -27.9149 
  15   2.0000      -0.978800       -26.6345 
  16   2.0000      -0.958770       -26.0895 
  17   2.0000      -0.787787       -21.4368 
  18   2.0000      -0.783615       -21.3233 
  19   2.0000      -0.764174       -20.7942 
  20   2.0000      -0.728532       -19.8244 
  21   2.0000      -0.680655       -18.5216 
  22   2.0000      -0.605779       -16.4841 
  23   2.0000      -0.594815       -16.1857 
  24   2.0000      -0.586753       -15.9664 
  25   2.0000      -0.575772       -15.6676 
  26   2.0000      -0.522441       -14.2164 
  27   2.0000      -0.499515       -13.5925 
  28   2.0000      -0.493350       -13.4247 
  29   2.0000      -0.485085       -13.1998 
  30   2.0000      -0.464386       -12.6366 
  31   2.0000      -0.442915       -12.0523 
  32   2.0000      -0.441215       -12.0061 
  33   2.0000      -0.434544       -11.8246 
  34   2.0000      -0.419797       -11.4233 
  35   2.0000      -0.416469       -11.3327 
  36   2.0000      -0.404219       -10.9994 
  37   2.0000      -0.396495       -10.7892 
  38   2.0000      -0.377858       -10.2820 
  39   2.0000      -0.368360       -10.0236 
  40   2.0000      -0.355395        -9.6708 
  41   2.0000      -0.352787        -9.5998 
  42   2.0000      -0.347607        -9.4589 
  43   2.0000      -0.333184        -9.0664 
  44   2.0000      -0.315611        -8.5882 
  45   2.0000      -0.313417        -8.5285 
  46   2.0000      -0.300976        -8.1900 
  47   2.0000      -0.272374        -7.4117 
  48   2.0000      -0.263109        -7.1596 
  49   2.0000      -0.252193        -6.8625 
  50   2.0000      -0.237719        -6.4687 
  51   0.0000       0.018145         0.4938 
  52   0.0000       0.060460         1.6452 
  53   0.0000       0.070591         1.9209 
  54   0.0000       0.089619         2.4387 
  55   0.0000       0.096276         2.6198 
  56   0.0000       0.107456         2.9240 
  57   0.0000       0.117764         3.2045 
  58   0.0000       0.120313         3.2739 
  59   0.0000       0.127793         3.4774 
  60   0.0000       0.135822         3.6959 
  61   0.0000       0.146187         3.9779 
  62   0.0000       0.151073         4.1109 
  63   0.0000       0.154173         4.1953 
  64   0.0000       0.155653         4.2355 
  65   0.0000       0.164205         4.4682 
  66   0.0000       0.172943         4.7060 
  67   0.0000       0.175082         4.7642 
  68   0.0000       0.184776         5.0280 
  69   0.0000       0.191060         5.1990 
  70   0.0000       0.200300         5.4505 
  71   0.0000       0.221569         6.0292 
  72   0.0000       0.225196         6.1279 
  73   0.0000       0.229717         6.2509 
  74   0.0000       0.241087         6.5603 
  75   0.0000       0.249026         6.7763 
  76   0.0000       0.260879         7.0989 
  77   0.0000       0.270582         7.3629 
  78   0.0000       0.277019         7.5381 
  79   0.0000       0.289205         7.8697 
  80   0.0000       0.293210         7.9787 
  81   0.0000       0.520848        14.1730 
  82   0.0000       0.533274        14.5111 
  83   0.0000       0.542806        14.7705 
  84   0.0000       0.552018        15.0212 
  85   0.0000       0.556051        15.1309 
  86   0.0000       0.561917        15.2906 
  87   0.0000       0.577038        15.7020 
  88   0.0000       0.584761        15.9121 
  89   0.0000       0.588859        16.0237 
  90   0.0000       0.593832        16.1590 
  91   0.0000       0.598411        16.2836 
  92   0.0000       0.611132        16.6297 
  93   0.0000       0.636938        17.3320 
  94   0.0000       0.641502        17.4562 
  95   0.0000       0.645594        17.5675 
  96   0.0000       0.648777        17.6541 
  97   0.0000       0.670492        18.2450 
  98   0.0000       0.681210        18.5367 
  99   0.0000       0.687873        18.7180 
 100   0.0000       0.735998        20.0275 
 101   0.0000       0.746043        20.3009 
 102   0.0000       0.788532        21.4570 
 103   0.0000       0.803861        21.8742 
 104   0.0000       0.812145        22.0996 
 105   0.0000       0.819641        22.3036 
 106   0.0000       0.828159        22.5353 
 107   0.0000       0.844404        22.9774 
 108   0.0000       0.858701        23.3664 
 109   0.0000       0.871446        23.7132 
 110   0.0000       0.875458        23.8224 
 111   0.0000       0.881744        23.9935 
 112   0.0000       0.895562        24.3695 
 113   0.0000       0.903702        24.5910 
 114   0.0000       0.914676        24.8896 
 115   0.0000       0.925662        25.1886 
 116   0.0000       0.933798        25.4099 
 117   0.0000       0.939367        25.5615 
 118   0.0000       0.951631        25.8952 
 119   0.0000       0.956457        26.0265 
 120   0.0000       0.963131        26.2081 
 121   0.0000       0.975287        26.5389 
 122   0.0000       0.998705        27.1761 
 123   0.0000       1.005029        27.3482 
 124   0.0000       1.037040        28.2193 
 125   0.0000       1.054553        28.6958 
 126   0.0000       1.069259        29.0960 
 127   0.0000       1.093097        29.7447 
 128   0.0000       1.140350        31.0305 
 129   0.0000       1.164039        31.6751 
 130   0.0000       1.174877        31.9700 
 131   0.0000       1.189023        32.3550 
 132   0.0000       1.243835        33.8465 
 133   0.0000       1.302791        35.4507 
 134   0.0000       1.341828        36.5130 
 135   0.0000       1.360559        37.0227 
 136   0.0000       1.369396        37.2632 
 137   0.0000       1.398386        38.0520 
 138   0.0000       1.439506        39.1709 
 139   0.0000       1.474559        40.1248 
 140   0.0000       1.481556        40.3152 
 141   0.0000       1.548966        42.1495 
 142   0.0000       1.615390        43.9570 
 143   0.0000       1.644378        44.7458 
 144   0.0000       1.736973        47.2654 
 145   0.0000       1.840796        50.0906 
 146   0.0000       1.920472        52.2587 
 147   0.0000       2.027530        55.1719 
 148   0.0000       2.089460        56.8571 

                    ********************************
                    * MULLIKEN POPULATION ANALYSIS *
                    ********************************

-----------------------
MULLIKEN ATOMIC CHARGES
-----------------------
   0 C :    0.277759
   1 C :   -0.263028
   2 C :   -0.303465
   3 C :   -0.000814
   4 O :   -0.502129
   5 H :    0.140912
   6 H :    0.147425
   7 H :    0.153874
   8 H :    0.140466
   9 H :    0.170993
  10 H :    0.152742
  11 H :    0.139211
  12 C :   -0.030713
  13 H :    0.123444
  14 H :    0.136571
  15 O :   -0.497600
  16 C :    0.080230
  17 C :    0.078583
  18 C :   -0.315144
  19 C :   -0.012323
  20 O :   -0.498690
  21 H :    0.158193
  22 H :    0.171214
  23 O :   -0.590302
  24 H :    0.156662
  25 H :    0.143768
  26 H :    0.151269
  27 H :    0.148749
  28 H :    0.342147
Sum of atomic charges:    0.0000000

--------------------------------
MULLIKEN REDUCED ORBITAL CHARGES
--------------------------------
  0 C s       :     3.229203  s :     3.229203
      pz      :     0.804214  p :     2.493038
      px      :     0.693871
      py      :     0.994953
  1 C s       :     3.304680  s :     3.304680
      pz      :     0.989314  p :     2.958348
      px      :     1.026067
      py      :     0.942968
  2 C s       :     3.317029  s :     3.317029
      pz      :     0.904941  p :     2.986436
      px      :     1.091343
      py      :     0.990151
  3 C s       :     3.260399  s :     3.260399
      pz      :     0.943189  p :     2.740415
      px      :     1.053739
      py      :     0.743487
  4 O s       :     3.943904  s :     3.943904
      pz      :     1.317891  p :     4.558225
      px      :     1.720652
      py      :     1.519682
  5 H s       :     0.859088  s :     0.859088
  6 H s       :     0.852575  s :     0.852575
  7 H s       :     0.846126  s :     0.846126
  8 H s       :     0.859534  s :     0.859534
  9 H s       :     0.829007  s :     0.829007
 10 H s       :     0.847258  s :     0.847258
 11 H s       :     0.860789  s :     0.860789
 12 C s       :     3.284808  s :     3.284808
      pz      :     0.911767  p :     2.745905
      px      :     0.907138
      py      :     0.927000
 13 H s       :     0.876556  s :     0.876556
 14 H s       :     0.863429  s :     0.863429
 15 O s       :     3.953402  s :     3.953402
      pz      :     1.655891  p :     4.544198
      px      :     1.227821
      py      :     1.660486
 16 C s       :     3.272268  s :     3.272268
      pz      :     0.852133  p :     2.647502
      px      :     0.832189
      py      :     0.963179
 17 C s       :     3.289125  s :     3.289125
      pz      :     0.895721  p :     2.632292
      px      :     0.903913
      py      :     0.832658
 18 C s       :     3.325815  s :     3.325815
      pz      :     0.945339  p :     2.989329
      px      :     1.060333
      py      :     0.983658
 19 C s       :     3.263319  s :     3.263319
      pz      :     1.032164  p :     2.749004
      px      :     0.879998
      py      :     0.836842
 20 O s       :     3.947156  s :     3.947156
      pz      :     1.605648  p :     4.551534
      px      :     1.377522
      py      :     1.568364
 21 H s       :     0.841807  s :     0.841807
 22 H s       :     0.828786  s :     0.828786
 23 O s       :     3.954105  s :     3.954105
      pz      :     1.529183  p :     4.636197
      px      :     1.598958
      py      :     1.508056
 24 H s       :     0.843338  s :     0.843338
 25 H s       :     0.856232  s :     0.856232
 26 H s       :     0.848731  s :     0.848731
 27 H s       :     0.851251  s :     0.851251
 28 H s       :     0.657853  s :     0.657853


                     *******************************
                     * LOEWDIN POPULATION ANALYSIS *
                     *******************************

----------------------
LOEWDIN ATOMIC CHARGES
----------------------
   0 C :    0.183252
   1 C :   -0.220513
   2 C :   -0.217380
   3 C :   -0.028235
   4 O :   -0.311605
   5 H :    0.099890
   6 H :    0.115466
   7 H :    0.122724
   8 H :    0.113123
   9 H :    0.123080
  10 H :    0.108212
  11 H :    0.100475
  12 C :   -0.051459
  13 H :    0.096804
  14 H :    0.099727
  15 O :   -0.350100
  16 C :    0.023087
  17 C :    0.041801
  18 C :   -0.235905
  19 C :   -0.031937
  20 O :   -0.312584
  21 H :    0.118137
  22 H :    0.126541
  23 O :   -0.435085
  24 H :    0.123055
  25 H :    0.109162
  26 H :    0.106183
  27 H :    0.105371
  28 H :    0.278713

-------------------------------
LOEWDIN REDUCED ORBITAL CHARGES
-------------------------------
  0 C s       :     2.981068  s :     2.981068
      pz      :     0.919301  p :     2.835680
      px      :     0.832491
      py      :     1.083889
  1 C s       :     2.978671  s :     2.978671
      pz      :     1.079026  p :     3.241842
      px      :     1.106055
      py      :     1.056760
  2 C s       :     2.973127  s :     2.973127
      pz      :     1.029956  p :     3.244252
      px      :     1.135005
      py      :     1.079292
  3 C s       :     2.983791  s :     2.983791
      pz      :     1.040106  p :     3.044444
      px      :     1.117704
      py      :     0.886633
  4 O s       :     3.608936  s :     3.608936
      pz      :     1.381712  p :     4.702669
      px      :     1.755050
      py      :     1.565907
  5 H s       :     0.900110  s :     0.900110
  6 H s       :     0.884534  s :     0.884534
  7 H s       :     0.877276  s :     0.877276
  8 H s       :     0.886877  s :     0.886877
  9 H s       :     0.876920  s :     0.876920
 10 H s       :     0.891788  s :     0.891788
 11 H s       :     0.899525  s :     0.899525
 12 C s       :     3.003259  s :     3.003259
      pz      :     1.011870  p :     3.048200
      px      :     1.023331
      py      :     1.013000
 13 H s       :     0.903196  s :     0.903196
 14 H s       :     0.900273  s :     0.900273
 15 O s       :     3.663546  s :     3.663546
      pz      :     1.694671  p :     4.686553
      px      :     1.293326
      py      :     1.698557
 16 C s       :     2.967358  s :     2.967358
      pz      :     0.961996  p :     3.009555
      px      :     0.985776
      py      :     1.061783
 17 C s       :     2.973532  s :     2.973532
      pz      :     1.023975  p :     2.984667
      px      :     1.004990
      py      :     0.955701
 18 C s       :     2.981743  s :     2.981743
      pz      :     1.057320  p :     3.254162
      px      :     1.112414
      py      :     1.084428
 19 C s       :     2.981623  s :     2.981623
      pz      :     1.104714  p :     3.050314
      px      :     0.983449
      py      :     0.962151
 20 O s       :     3.604465  s :     3.604465
      pz      :     1.648194  p :     4.708119
      px      :     1.437959
      py      :     1.621966
 21 H s       :     0.881863  s :     0.881863
 22 H s       :     0.873459  s :     0.873459
 23 O s       :     3.694129  s :     3.694129
      pz      :     1.567830  p :     4.740957
      px      :     1.626367
      py      :     1.546760
 24 H s       :     0.876945  s :     0.876945
 25 H s       :     0.890838  s :     0.890838
 26 H s       :     0.893817  s :     0.893817
 27 H s       :     0.894629  s :     0.894629
 28 H s       :     0.721287  s :     0.721287


                      *****************************
                      * MAYER POPULATION ANALYSIS *
                      *****************************

  NA   - Mulliken gross atomic population
  ZA   - Total nuclear charge
  QA   - Mulliken gross atomic charge
  VA   - Mayer's total valence
  BVA  - Mayer's bonded valence
  FA   - Mayer's free valence

  ATOM       NA         ZA         QA         VA         BVA        FA
  0 C      5.7222     6.0000     0.2778     3.6724     3.6724    -0.0000
  1 C      6.2630     6.0000    -0.2630     3.7270     3.7270     0.0000
  2 C      6.3035     6.0000    -0.3035     3.7651     3.7651     0.0000
  3 C      6.0008     6.0000    -0.0008     3.6565     3.6565    -0.0000
  4 O      8.5021     8.0000    -0.5021     1.8126     1.8126    -0.0000
  5 H      0.8591     1.0000     0.1409     0.9347     0.9347    -0.0000
  6 H      0.8526     1.0000     0.1474     0.9299     0.9299     0.0000
  7 H      0.8461     1.0000     0.1539     0.9412     0.9412     0.0000
  8 H      0.8595     1.0000     0.1405     0.9366     0.9366    -0.0000
  9 H      0.8290     1.0000     0.1710     0.9302     0.9302     0.0000
 10 H      0.8473     1.0000     0.1527     0.9255     0.9255    -0.0000
 11 H      0.8608     1.0000     0.1392     0.9286     0.9286    -0.0000
 12 C      6.0307     6.0000    -0.0307     3.6598     3.6598     0.0000
 13 H      0.8766     1.0000     0.1234     0.9456     0.9456     0.0000
 14 H      0.8634     1.0000     0.1366     0.9318     0.9318     0.0000
 15 O      8.4976     8.0000    -0.4976     1.8058     1.8058    -0.0000
 16 C      5.9198     6.0000     0.0802     3.5783     3.5783    -0.0000
 17 C      5.9214     6.0000     0.0786     3.6322     3.6322     0.0000
 18 C      6.3151     6.0000    -0.3151     3.7164     3.7164     0.0000
 19 C      6.0123     6.0000    -0.0123     3.6515     3.6515     0.0000
 20 O      8.4987     8.0000    -0.4987     1.7819     1.7819     0.0000
 21 H      0.8418     1.0000     0.1582     0.9363     0.9363    -0.0000
 22 H      0.8288     1.0000     0.1712     0.9283     0.9283     0.0000
 23 O      8.5903     8.0000    -0.5903     1.7671     1.7671    -0.0000
 24 H      0.8433     1.0000     0.1567     0.9376     0.9376     0.0000
 25 H      0.8562     1.0000     0.1438     0.9414     0.9414     0.0000
 26 H      0.8487     1.0000     0.1513     0.9245     0.9245     0.0000
 27 H      0.8513     1.0000     0.1487     0.9271     0.9271     0.0000
 28 H      0.6579     1.0000     0.3421     0.8556     0.8556     0.0000

  Mayer bond orders larger than 0.100000
B(  0-C ,  1-C ) :   0.9354 B(  0-C ,  4-O ) :   0.9241 B(  0-C ,  5-H ) :   0.9174 
B(  0-C , 15-O ) :   0.8493 B(  1-C ,  2-C ) :   0.9593 B(  1-C ,  6-H ) :   0.9337 
B(  1-C ,  7-H ) :   0.9359 B(  2-C ,  3-C ) :   0.9537 B(  2-C ,  8-H ) :   0.9448 
B(  2-C ,  9-H ) :   0.9424 B(  3-C ,  4-O ) :   0.8389 B(  3-C , 10-H ) :   0.9337 
B(  3-C , 11-H ) :   0.9388 B( 12-C , 13-H ) :   0.9002 B( 12-C , 14-H ) :   0.9181 
B( 12-C , 15-O ) :   0.8773 B( 12-C , 16-C ) :   0.8963 B( 16-C , 17-C ) :   0.8748 
B( 16-C , 20-O ) :   0.8724 B( 16-C , 21-H ) :   0.9317 B( 17-C , 18-C ) :   0.9167 
B( 17-C , 22-H ) :   0.9323 B( 17-C , 23-O ) :   0.8870 B( 18-C , 19-C ) :   0.9303 
B( 18-C , 24-H ) :   0.9428 B( 18-C , 25-H ) :   0.9414 B( 19-C , 20-O ) :   0.8472 
B( 19-C , 26-H ) :   0.9308 B( 19-C , 27-H ) :   0.9375 B( 23-O , 28-H ) :   0.8021 


-------
TIMINGS
-------

Total SCF time: 0 days 0 hours 22 min 52 sec 

Total time                  ....    1372.115 sec
Sum of individual times     ....     918.219 sec  ( 66.9%)

Fock matrix formation       ....     854.162 sec  ( 62.3%)
  XC integration            ....     516.402 sec  ( 60.5% of F)
    Basis function eval.    ....       2.996 sec  (  0.6% of XC)
    Density eval.           ....       2.072 sec  (  0.4% of XC)
    XC-Functional eval.     ....       1.916 sec  (  0.4% of XC)
    XC-Potential eval.      ....       1.282 sec  (  0.2% of XC)
Diagonalization             ....       6.277 sec  (  0.5%)
Density matrix formation    ....       0.013 sec  (  0.0%)
Population analysis         ....       0.037 sec  (  0.0%)
Initial guess               ....       3.188 sec  (  0.2%)
Orbital Transformation      ....       0.000 sec  (  0.0%)
Orbital Orthonormalization  ....       0.000 sec  (  0.0%)
DIIS solution               ....      44.300 sec  (  3.2%)
SOSCF solution              ....       0.740 sec  (  0.1%)
Grid generation             ....       9.502 sec  (  0.7%)

-------------------------   --------------------
FINAL SINGLE POINT ENERGY      -652.826598431330
-------------------------   --------------------

------------------------------------------------------------------------------
                         ORCA SCF GRADIENT CALCULATION
------------------------------------------------------------------------------

Gradient of the Kohn-Sham DFT energy:
Kohn-Sham wavefunction type      ... RKS
Hartree-Fock exchange scaling    ...    0.200
Number of operators              ...    1
Number of atoms                  ...   29
Basis set dimensions             ...  149
Integral neglect threshold       ... 2.5e-11
Integral primitive cutoff        ... 2.5e-12

Nuclear repulsion gradient       ... done
One Electron Gradient            ... done
Pre-screening matrix             ... done
Starting the two electron gradient:
Two electron gradient done
Exchange-correlation gradient    ... done

------------------
CARTESIAN GRADIENT
------------------

   1   C   :    0.017073233    0.006801399   -0.009359881
   2   C   :    0.010846427   -0.004366237   -0.004350854
   3   C   :   -0.000077247   -0.000679190   -0.001886242
   4   C   :    0.000166700   -0.004593162   -0.003336250
   5   O   :    0.012537795   -0.005998332    0.017585858
   6   H   :    0.003097418    0.001717333   -0.000863018
   7   H   :    0.000078920    0.002871008   -0.000029198
   8   H   :    0.000553822    0.002289547   -0.001221571
   9   H   :   -0.000705846    0.000634889    0.000088131
  10   H   :   -0.000466665    0.001803320    0.001056479
  11   H   :   -0.000330456    0.000962071    0.001583022
  12   H   :   -0.000546636    0.000993164    0.000636392
  13   C   :   -0.013599965   -0.017357416   -0.010457907
  14   H   :   -0.003146536   -0.002564866   -0.001224456
  15   H   :   -0.007029084   -0.003778688   -0.007610739
  16   O   :   -0.010245666    0.020258537    0.028060773
  17   C   :   -0.021912131   -0.008041119   -0.014834320
  18   C   :   -0.018711211    0.032153378    0.000391925
  19   C   :    0.005512470   -0.002224234    0.000026686
  20   C   :    0.001230176    0.004000325   -0.001407891
  21   O   :   -0.000673033    0.001156800    0.005589504
  22   H   :    0.002296639   -0.000320106    0.000195394
  23   H   :   -0.006786797    0.007873834    0.006098482
  24   O   :   -0.014168247    0.006472741   -0.048517666
  25   H   :   -0.001454666   -0.000311582    0.000592313
  26   H   :    0.000689046    0.000009203    0.001934997
  27   H   :    0.000476966   -0.000648451    0.001225195
  28   H   :    0.001021317   -0.000337638    0.000056712
  29   H   :    0.044273255   -0.038776525    0.039978129

Difference to translation invariance:
           :    0.0000000000   -0.0000000000   -0.0000000001

Norm of the cartesian gradient     ...    0.1151224744
RMS gradient                       ...    0.0123424248
MAX gradient                       ...    0.0485176664

-------
TIMINGS
-------

Total SCF gradient time            ...       33.074 sec

One electron gradient       ....       0.416 sec  (  1.3%)
Prescreening matrices       ....       0.048 sec  (  0.1%)
Two electron gradient       ....      13.463 sec  ( 40.7%)
XC gradient                 ....      11.092 sec  ( 33.5%)
------------------------------------------------------------------------------
                         ORCA GEOMETRY RELAXATION STEP
------------------------------------------------------------------------------

Reading the OPT-File                    .... done
Getting information on internals        .... done
Copying old internal coords+grads       .... done
Making the new internal coordinates     .... (new redundants).... done
Validating the new internal coordinates .... (new redundants).... done
Calculating the B-matrix                .... done
Calculating the G,G- and P matrices     .... done
Transforming gradient to internals      .... done
Projecting the internal gradient        .... done
Number of atoms                         ....  29
Number of internal coordinates          .... 172
Current Energy                          ....  -652.826598431 Eh
Current gradient norm                   ....     0.115122474 Eh/bohr
Maximum allowed component of the step   ....  0.300
Current trust radius                    ....  0.300
Evaluating the initial hessian          ....  (Almloef) done
Projecting the Hessian                  .... done
Forming the augmented Hessian           .... done
Diagonalizing the augmented Hessian     .... done
Last element of RFO vector              ....  0.939745807
Lowest eigenvalues of augmented Hessian:
 -0.038455502  0.007946978  0.032941046  0.033089378  0.036620550
Length of the computed step             ....  0.363794100
Warning: the length of the step is outside the trust region - taking restricted step instead
The input lambda is                     ....    -0.038456
   iter:   1  x=   -0.072375  g=    1.248417 f(x)=     0.042346
   iter:   2  x=   -0.088888  g=    0.689544 f(x)=     0.011386
   iter:   3  x=   -0.090839  g=    0.563871 f(x)=     0.001100
   iter:   4  x=   -0.090860  g=    0.551689 f(x)=     0.000012
   iter:   5  x=   -0.090860  g=    0.551557 f(x)=     0.000000
   iter:   6  x=   -0.090860  g=    0.551556 f(x)=     0.000000
[...]
  29   2.0000      -0.487107       -13.2548 
  30   2.0000      -0.466050       -12.6819 
  31   2.0000      -0.455091       -12.3837 
  32   2.0000      -0.443430       -12.0663 
  33   2.0000      -0.436343       -11.8735 
  34   2.0000      -0.427434       -11.6311 
  35   2.0000      -0.418277       -11.3819 
  36   2.0000      -0.406023       -11.0484 
  37   2.0000      -0.395758       -10.7691 
  38   2.0000      -0.377267       -10.2660 
  39   2.0000      -0.367255        -9.9935 
  40   2.0000      -0.355951        -9.6859 
  41   2.0000      -0.350931        -9.5493 
  42   2.0000      -0.344872        -9.3844 
  43   2.0000      -0.329478        -8.9655 
  44   2.0000      -0.317785        -8.6474 
  45   2.0000      -0.311326        -8.4716 
  46   2.0000      -0.300006        -8.1636 
  47   2.0000      -0.273000        -7.4287 
  48   2.0000      -0.261498        -7.1157 
  49   2.0000      -0.250304        -6.8111 
  50   2.0000      -0.234099        -6.3702 
  51   0.0000       0.048343         1.3155 
  52   0.0000       0.077855         2.1185 
  53   0.0000       0.086831         2.3628 
  54   0.0000       0.091545         2.4911 
  55   0.0000       0.101904         2.7729 
  56   0.0000       0.115666         3.1474 
  57   0.0000       0.121280         3.3002 
  58   0.0000       0.131574         3.5803 
  59   0.0000       0.137999         3.7552 
  60   0.0000       0.153007         4.1635 
  61   0.0000       0.153666         4.1815 
  62   0.0000       0.157291         4.2801 
  63   0.0000       0.160148         4.3579 
  64   0.0000       0.161078         4.3831 
  65   0.0000       0.169532         4.6132 
  66   0.0000       0.177857         4.8397 
  67   0.0000       0.189097         5.1456 
  68   0.0000       0.193912         5.2766 
  69   0.0000       0.204450         5.5634 
  70   0.0000       0.210376         5.7246 
  71   0.0000       0.227917         6.2019 
  72   0.0000       0.232377         6.3233 
  73   0.0000       0.240814         6.5529 
  74   0.0000       0.253415         6.8958 
  75   0.0000       0.262535         7.1440 
  76   0.0000       0.273525         7.4430 
  77   0.0000       0.283500         7.7144 
  78   0.0000       0.293159         7.9773 
  79   0.0000       0.300923         8.1885 
  80   0.0000       0.308932         8.4065 
  81   0.0000       0.522057        14.2059 
  82   0.0000       0.534763        14.5516 
  83   0.0000       0.544427        14.8146 
  84   0.0000       0.556983        15.1563 
  85   0.0000       0.558577        15.1997 
  86   0.0000       0.562814        15.3149 
  87   0.0000       0.586071        15.9478 
  88   0.0000       0.588689        16.0190 
  89   0.0000       0.594457        16.1760 
  90   0.0000       0.601743        16.3743 
  91   0.0000       0.603290        16.4164 
  92   0.0000       0.619598        16.8601 
  93   0.0000       0.636960        17.3325 
  94   0.0000       0.647322        17.6145 
  95   0.0000       0.649652        17.6779 
  96   0.0000       0.655936        17.8489 
  97   0.0000       0.667532        18.1645 
  98   0.0000       0.684846        18.6356 
  99   0.0000       0.701524        19.0894 
 100   0.0000       0.730731        19.8842 
 101   0.0000       0.766497        20.8574 
 102   0.0000       0.810305        22.0495 
 103   0.0000       0.812395        22.1064 
 104   0.0000       0.819204        22.2917 
 105   0.0000       0.833796        22.6887 
 106   0.0000       0.842181        22.9169 
 107   0.0000       0.850148        23.1337 
 108   0.0000       0.858955        23.3734 
 109   0.0000       0.869637        23.6640 
 110   0.0000       0.875734        23.8299 
 111   0.0000       0.882406        24.0115 
 112   0.0000       0.897362        24.4185 
 113   0.0000       0.903992        24.5989 
 114   0.0000       0.919607        25.0238 
 115   0.0000       0.930948        25.3324 
 116   0.0000       0.935496        25.4561 
 117   0.0000       0.943431        25.6721 
 118   0.0000       0.952929        25.9305 
 119   0.0000       0.960457        26.1354 
 120   0.0000       0.963992        26.2315 
 121   0.0000       0.988253        26.8917 
 122   0.0000       1.000700        27.2304 
 123   0.0000       1.008510        27.4430 
 124   0.0000       1.030394        28.0384 
 125   0.0000       1.060611        28.8607 
 126   0.0000       1.073237        29.2043 
 127   0.0000       1.098725        29.8978 
 128   0.0000       1.133970        30.8569 
 129   0.0000       1.180954        32.1354 
 130   0.0000       1.182313        32.1724 
 131   0.0000       1.223590        33.2956 
 132   0.0000       1.263635        34.3853 
 133   0.0000       1.303452        35.4687 
 134   0.0000       1.348530        36.6954 
 135   0.0000       1.361194        37.0400 
 136   0.0000       1.389544        37.8114 
 137   0.0000       1.399170        38.0734 
 138   0.0000       1.449368        39.4393 
 139   0.0000       1.493410        40.6377 
 140   0.0000       1.514784        41.2194 
 141   0.0000       1.572624        42.7933 
 142   0.0000       1.666372        45.3443 
 143   0.0000       1.675762        45.5998 
 144   0.0000       1.762951        47.9723 
 145   0.0000       1.897185        51.6250 
 146   0.0000       1.953618        53.1606 
 147   0.0000       2.031237        55.2728 
 148   0.0000       2.137617        58.1675 

                    ********************************
                    * MULLIKEN POPULATION ANALYSIS *
                    ********************************

-----------------------
MULLIKEN ATOMIC CHARGES
-----------------------
   0 C :    0.278252
   1 C :   -0.250145
   2 C :   -0.300663
   3 C :   -0.000137
   4 O :   -0.504181
   5 H :    0.136265
   6 H :    0.139797
   7 H :    0.146666
   8 H :    0.138243
   9 H :    0.170964
  10 H :    0.151619
  11 H :    0.138212
  12 C :   -0.010062
  13 H :    0.128265
  14 H :    0.131997
  15 O :   -0.505026
  16 C :    0.100627
  17 C :    0.086207
  18 C :   -0.324588
  19 C :   -0.007516
  20 O :   -0.504897
  21 H :    0.152980
  22 H :    0.167170
  23 O :   -0.602719
  24 H :    0.156752
  25 H :    0.132670
  26 H :    0.148273
  27 H :    0.148404
  28 H :    0.356571
Sum of atomic charges:   -0.0000000

--------------------------------
MULLIKEN REDUCED ORBITAL CHARGES
--------------------------------
  0 C s       :     3.199702  s :     3.199702
      pz      :     0.818571  p :     2.522047
      px      :     0.686771
      py      :     1.016705
  1 C s       :     3.298459  s :     3.298459
      pz      :     0.983315  p :     2.951686
      px      :     1.038474
      py      :     0.929897
  2 C s       :     3.315773  s :     3.315773
      pz      :     0.906553  p :     2.984891
      px      :     1.088547
      py      :     0.989791
  3 C s       :     3.261190  s :     3.261190
      pz      :     0.936564  p :     2.738947
      px      :     1.065066
      py      :     0.737317
  4 O s       :     3.936485  s :     3.936485
      pz      :     1.300520  p :     4.567695
      px      :     1.747856
      py      :     1.519319
  5 H s       :     0.863735  s :     0.863735
  6 H s       :     0.860203  s :     0.860203
  7 H s       :     0.853334  s :     0.853334
  8 H s       :     0.861757  s :     0.861757
  9 H s       :     0.829036  s :     0.829036
 10 H s       :     0.848381  s :     0.848381
 11 H s       :     0.861788  s :     0.861788
 12 C s       :     3.252472  s :     3.252472
      pz      :     0.932444  p :     2.757590
      px      :     0.910044
      py      :     0.915101
 13 H s       :     0.871735  s :     0.871735
 14 H s       :     0.868003  s :     0.868003
 15 O s       :     3.921468  s :     3.921468
      pz      :     1.683038  p :     4.583558
      px      :     1.242466
      py      :     1.658055
 16 C s       :     3.255511  s :     3.255511
      pz      :     0.841242  p :     2.643862
      px      :     0.839821
      py      :     0.962799
 17 C s       :     3.248278  s :     3.248278
      pz      :     0.898568  p :     2.665515
      px      :     0.914803
      py      :     0.852145
 18 C s       :     3.325415  s :     3.325415
      pz      :     0.956324  p :     2.999173
      px      :     1.054486
      py      :     0.988362
 19 C s       :     3.262848  s :     3.262848
      pz      :     1.028913  p :     2.744668
      px      :     0.847272
      py      :     0.868483
 20 O s       :     3.947204  s :     3.947204
      pz      :     1.623973  p :     4.557692
      px      :     1.340158
      py      :     1.593562
 21 H s       :     0.847020  s :     0.847020
 22 H s       :     0.832830  s :     0.832830
 23 O s       :     3.921063  s :     3.921063
      pz      :     1.589344  p :     4.681655
      px      :     1.769212
      py      :     1.323100
 24 H s       :     0.843248  s :     0.843248
 25 H s       :     0.867330  s :     0.867330
 26 H s       :     0.851727  s :     0.851727
 27 H s       :     0.851596  s :     0.851596
 28 H s       :     0.643429  s :     0.643429


                     *******************************
                     * LOEWDIN POPULATION ANALYSIS *
                     *******************************

----------------------
LOEWDIN ATOMIC CHARGES
----------------------
   0 C :    0.175057
   1 C :   -0.220851
   2 C :   -0.216622
   3 C :   -0.026164
   4 O :   -0.318443
   5 H :    0.095884
   6 H :    0.110893
   7 H :    0.118177
   8 H :    0.112566
   9 H :    0.123615
  10 H :    0.107908
  11 H :    0.100356
  12 C :   -0.045185
  13 H :    0.097766
  14 H :    0.095186
  15 O :   -0.319716
  16 C :    0.018412
  17 C :    0.034083
  18 C :   -0.240513
  19 C :   -0.028991
  20 O :   -0.313336
  21 H :    0.114675
  22 H :    0.119383
  23 O :   -0.409198
  24 H :    0.122338
  25 H :    0.103681
  26 H :    0.105207
  27 H :    0.105566
  28 H :    0.278267

-------------------------------
LOEWDIN REDUCED ORBITAL CHARGES
-------------------------------
  0 C s       :     2.954019  s :     2.954019
      pz      :     0.931533  p :     2.870924
      px      :     0.845505
      py      :     1.093886
  1 C s       :     2.979909  s :     2.979909
      pz      :     1.076624  p :     3.240942
      px      :     1.112350
      py      :     1.051968
  2 C s       :     2.971292  s :     2.971292
      pz      :     1.030740  p :     3.245330
      px      :     1.135243
      py      :     1.079347
  3 C s       :     2.984095  s :     2.984095
      pz      :     1.035327  p :     3.042069
      px      :     1.127918
      py      :     0.878825
  4 O s       :     3.597891  s :     3.597891
      pz      :     1.370019  p :     4.720553
      px      :     1.783896
      py      :     1.566638
  5 H s       :     0.904116  s :     0.904116
  6 H s       :     0.889107  s :     0.889107
  7 H s       :     0.881823  s :     0.881823
  8 H s       :     0.887434  s :     0.887434
  9 H s       :     0.876385  s :     0.876385
 10 H s       :     0.892092  s :     0.892092
 11 H s       :     0.899644  s :     0.899644
 12 C s       :     2.977128  s :     2.977128
      pz      :     1.029814  p :     3.068058
      px      :     1.021918
      py      :     1.016326
 13 H s       :     0.902234  s :     0.902234
 14 H s       :     0.904814  s :     0.904814
 15 O s       :     3.582278  s :     3.582278
      pz      :     1.723759  p :     4.737438
      px      :     1.314441
      py      :     1.699239
 16 C s       :     2.962847  s :     2.962847
      pz      :     0.957530  p :     3.018742
      px      :     0.999894
      py      :     1.061317
 17 C s       :     2.951838  s :     2.951838
      pz      :     1.020320  p :     3.014079
      px      :     1.019731
      py      :     0.974028
 18 C s       :     2.983116  s :     2.983116
      pz      :     1.062865  p :     3.257397
      px      :     1.109025
      py      :     1.085507
 19 C s       :     2.981039  s :     2.981039
      pz      :     1.104873  p :     3.047952
      px      :     0.955632
      py      :     0.987447
 20 O s       :     3.602155  s :     3.602155
      pz      :     1.666163  p :     4.711181
      px      :     1.402330
      py      :     1.642687
 21 H s       :     0.885325  s :     0.885325
 22 H s       :     0.880617  s :     0.880617
 23 O s       :     3.609113  s :     3.609113
      pz      :     1.633271  p :     4.800086
      px      :     1.791600
      py      :     1.375214
 24 H s       :     0.877662  s :     0.877662
 25 H s       :     0.896319  s :     0.896319
 26 H s       :     0.894793  s :     0.894793
 27 H s       :     0.894434  s :     0.894434
 28 H s       :     0.721733  s :     0.721733


                      *****************************
                      * MAYER POPULATION ANALYSIS *
                      *****************************

  NA   - Mulliken gross atomic population
  ZA   - Total nuclear charge
  QA   - Mulliken gross atomic charge
  VA   - Mayer's total valence
  BVA  - Mayer's bonded valence
  FA   - Mayer's free valence

  ATOM       NA         ZA         QA         VA         BVA        FA
  0 C      5.7217     6.0000     0.2783     3.6903     3.6903     0.0000
  1 C      6.2501     6.0000    -0.2501     3.7292     3.7292    -0.0000
  2 C      6.3007     6.0000    -0.3007     3.7669     3.7669    -0.0000
  3 C      6.0001     6.0000    -0.0001     3.6604     3.6604    -0.0000
  4 O      8.5042     8.0000    -0.5042     1.7911     1.7911     0.0000
  5 H      0.8637     1.0000     0.1363     0.9389     0.9389    -0.0000
  6 H      0.8602     1.0000     0.1398     0.9325     0.9325    -0.0000
  7 H      0.8533     1.0000     0.1467     0.9434     0.9434     0.0000
  8 H      0.8618     1.0000     0.1382     0.9374     0.9374     0.0000
  9 H      0.8290     1.0000     0.1710     0.9319     0.9319     0.0000
 10 H      0.8484     1.0000     0.1516     0.9261     0.9261     0.0000
 11 H      0.8618     1.0000     0.1382     0.9294     0.9294     0.0000
 12 C      6.0101     6.0000    -0.0101     3.6268     3.6268     0.0000
 13 H      0.8717     1.0000     0.1283     0.9456     0.9456    -0.0000
 14 H      0.8680     1.0000     0.1320     0.9329     0.9329    -0.0000
 15 O      8.5050     8.0000    -0.5050     1.7543     1.7543    -0.0000
 16 C      5.8994     6.0000     0.1006     3.5692     3.5692     0.0000
 17 C      5.9138     6.0000     0.0862     3.6423     3.6423    -0.0000
 18 C      6.3246     6.0000    -0.3246     3.7282     3.7282    -0.0000
 19 C      6.0075     6.0000    -0.0075     3.6644     3.6644     0.0000
 20 O      8.5049     8.0000    -0.5049     1.7835     1.7835    -0.0000
 21 H      0.8470     1.0000     0.1530     0.9374     0.9374    -0.0000
 22 H      0.8328     1.0000     0.1672     0.9248     0.9248     0.0000
 23 O      8.6027     8.0000    -0.6027     1.7489     1.7489     0.0000
 24 H      0.8432     1.0000     0.1568     0.9362     0.9362    -0.0000
 25 H      0.8673     1.0000     0.1327     0.9420     0.9420     0.0000
 26 H      0.8517     1.0000     0.1483     0.9246     0.9246    -0.0000
 27 H      0.8516     1.0000     0.1484     0.9272     0.9272     0.0000
 28 H      0.6434     1.0000     0.3566     0.8368     0.8368     0.0000

  Mayer bond orders larger than 0.100000
B(  0-C ,  1-C ) :   0.9416 B(  0-C ,  4-O ) :   0.9305 B(  0-C ,  5-H ) :   0.9176 
B(  0-C , 15-O ) :   0.8502 B(  1-C ,  2-C ) :   0.9582 B(  1-C ,  6-H ) :   0.9371 
B(  1-C ,  7-H ) :   0.9380 B(  2-C ,  3-C ) :   0.9546 B(  2-C ,  8-H ) :   0.9453 
B(  2-C ,  9-H ) :   0.9417 B(  3-C ,  4-O ) :   0.8375 B(  3-C , 10-H ) :   0.9349 
B(  3-C , 11-H ) :   0.9400 B( 12-C , 13-H ) :   0.9035 B( 12-C , 14-H ) :   0.9239 
B( 12-C , 15-O ) :   0.8541 B( 12-C , 16-C ) :   0.9008 B( 16-C , 17-C ) :   0.8709 
B( 16-C , 20-O ) :   0.8727 B( 16-C , 21-H ) :   0.9317 B( 17-C , 18-C ) :   0.9245 
B( 17-C , 22-H ) :   0.9332 B( 17-C , 23-O ) :   0.8926 B( 18-C , 19-C ) :   0.9386 
B( 18-C , 24-H ) :   0.9417 B( 18-C , 25-H ) :   0.9408 B( 19-C , 20-O ) :   0.8508 
B( 19-C , 26-H ) :   0.9313 B( 19-C , 27-H ) :   0.9377 B( 23-O , 28-H ) :   0.7984 


-------
TIMINGS
-------

Total SCF time: 0 days 0 hours 4 min 42 sec 

Total time                  ....     282.609 sec
Sum of individual times     ....     233.422 sec  ( 82.6%)

Fock matrix formation       ....     197.021 sec  ( 69.7%)
  XC integration            ....      88.944 sec  ( 45.1% of F)
    Basis function eval.    ....       1.363 sec  (  1.5% of XC)
    Density eval.           ....       1.198 sec  (  1.3% of XC)
    XC-Functional eval.     ....      10.129 sec  ( 11.4% of XC)
    XC-Potential eval.      ....       0.556 sec  (  0.6% of XC)
Diagonalization             ....       0.009 sec  (  0.0%)
Density matrix formation    ....       0.005 sec  (  0.0%)
Population analysis         ....      16.498 sec  (  5.8%)
Initial guess               ....       0.107 sec  (  0.0%)
Orbital Transformation      ....       0.000 sec  (  0.0%)
Orbital Orthonormalization  ....       0.006 sec  (  0.0%)
DIIS solution               ....       0.001 sec  (  0.0%)
SOSCF solution              ....       0.464 sec  (  0.2%)
Grid generation             ....      19.317 sec  (  6.8%)

-------------------------   --------------------
FINAL SINGLE POINT ENERGY      -652.855285613871
-------------------------   --------------------

                                *** OPTIMIZATION RUN DONE ***

                            ***************************************
                            *     ORCA property calculations      *
                            ***************************************

                                    ---------------------
                                    Active property flags
                                    ---------------------
   (+) Dipole Moment


------------------------------------------------------------------------------
                       ORCA ELECTRIC PROPERTIES CALCULATION
------------------------------------------------------------------------------

Dipole Moment Calculation                       ... on
Quadrupole Moment Calculation                   ... off
Polarizability Calculation                      ... off
GBWName                                         ... project_8053/ensemble_240_225.gbw
Electron density file                           ... project_8053/ensemble_240_225.scfp
The origin for moment calculation is the CENTER OF MASS  = (-43.762368, 49.339364 86.592391)

-------------
DIPOLE MOMENT
-------------
                                X             Y             Z
Electronic contribution:     -0.55021      -1.46045      -0.89750
Nuclear contribution   :      0.32421       1.15406       0.72557
                        -----------------------------------------
Total Dipole Moment    :     -0.22600      -0.30639      -0.17192
                        -----------------------------------------
Magnitude (a.u.)       :      0.41774
Magnitude (Debye)      :      1.06181



--------------------
Rotational spectrum 
--------------------
 
Rotational constants in cm-1:     0.057236     0.011921     0.011129 
Rotational constants in MHz :  1715.900313   357.382809   333.652542 

 Dipole components along the rotational axes: 
x,y,z [a.u.] :    -0.357118    -0.153009    -0.153502 
x,y,z [Debye]:    -0.907722    -0.388917    -0.390172 

 

Timings for individual modules:

Sum of individual times         ...     5378.209 sec (=  89.637 min)
GTO integral calculation        ...      205.901 sec (=   3.432 min)   3.8 %
SCF iterations                  ...     4777.991 sec (=  79.633 min)  88.8 %
SCF Gradient evaluation         ...      318.799 sec (=   5.313 min)   5.9 %
Geometry relaxation             ...       75.518 sec (=   1.259 min)   1.4 %
                             ****ORCA TERMINATED NORMALLY****
TOTAL RUN TIME: 0 days 1 hours 32 minutes 45 seconds 416 msec
