
                                 *****************
                                 * O   R   C   A *
                                 *****************

           --- An Ab Initio, DFT and Semiempirical electronic structure package ---

                  #######################################################
                  #                        -***-                        #
                  #          Department of theory and spectroscopy      #
                  #               Directorship: Frank Neese             #
                  #        Max Planck Institute fuer Kohlenforschung    #
                  #                Kaiser Wilhelm Platz 1               #
                  #                 D-45470 Muelheim/Ruhr               #
                  #                      Germany                        #
                  #                                                     #
                  #                  All rights reserved                #
                  #                        -***-                        #
                  #######################################################


                         Program Version 4.2.1 -  RELEASE  -


 With contributions from (in alphabetic order):
   Daniel Aravena         : Magnetic Suceptibility
   Michael Atanasov       : Ab Initio Ligand Field Theory (pilot matlab implementation)
   Alexander A. Auer      : GIAO ZORA, VPT2
   Ute Becker             : Parallelization
   Giovanni Bistoni       : ED, misc. LED, open-shell LED, HFLD
   Martin Brehm           : Molecular dynamics
   Dmytro Bykov           : SCF Hessian
   Vijay G. Chilkuri      : MRCI spin determinant printing, contributions to CSF-ICE
   Dipayan Datta          : RHF DLPNO-CCSD density
   Achintya Kumar Dutta   : EOM-CC, STEOM-CC
   Dmitry Ganyushin       : Spin-Orbit,Spin-Spin,Magnetic field MRCI
   Miquel Garcia          : C-PCM Hessian, Gaussian charge scheme
   Yang Guo               : DLPNO-NEVPT2, CIM, IAO-localization
   Andreas Hansen         : Spin unrestricted coupled pair/coupled cluster methods
   Benjamin Helmich-Paris : CASSCF linear response (MC-RPA)
   Lee Huntington         : MR-EOM, pCC
   Robert Izsak           : Overlap fitted RIJCOSX, COSX-SCS-MP3, EOM
   Christian Kollmar      : KDIIS, OOCD, Brueckner-CCSD(T), CCSD density
   Simone Kossmann        : Meta GGA functionals, TD-DFT gradient, OOMP2, MP2 Hessian
   Martin Krupicka        : AUTO-CI
   Lucas Lang             : DCDCAS
   Dagmar Lenk            : GEPOL surface, SMD
   Dimitrios Liakos       : Extrapolation schemes; Compound Job, initial MDCI parallelization
   Dimitrios Manganas     : Further ROCIS development; embedding schemes
   Dimitrios Pantazis     : SARC Basis sets
   Taras Petrenko         : DFT Hessian,TD-DFT gradient, ASA, ECA, R-Raman, ABS, FL, XAS/XES, NRVS
   Peter Pinski           : DLPNO-MP2, DLPNO-MP2 Gradient
   Christoph Reimann      : Effective Core Potentials
   Marius Retegan         : Local ZFS, SOC
   Christoph Riplinger    : Optimizer, TS searches, QM/MM, DLPNO-CCSD(T), (RO)-DLPNO pert. Triples
   Tobias Risthaus        : Range-separated hybrids, TD-DFT gradient, RPA, STAB
   Michael Roemelt        : Original ROCIS implementation
   Masaaki Saitow         : Open-shell DLPNO-CCSD energy and density
   Barbara Sandhoefer     : DKH picture change effects
   Avijit Sen             : IP-ROCIS
   Kantharuban Sivalingam : CASSCF convergence, NEVPT2, FIC-MRCI
   Bernardo de Souza      : ESD, SOC TD-DFT
   Georgi Stoychev        : AutoAux, RI-MP2 NMR
   Willem Van den Heuvel  : Paramagnetic NMR
   Boris Wezisla          : Elementary symmetry handling
   Frank Wennmohs         : Technical directorship


 We gratefully acknowledge several colleagues who have allowed us to
 interface, adapt or use parts of their codes:
   Stefan Grimme, W. Hujo, H. Kruse,             : VdW corrections, initial TS optimization,
                  C. Bannwarth                     DFT functionals, gCP, sTDA/sTD-DF
   Ed Valeev, F. Pavosevic, A. Kumar             : LibInt (2-el integral package), F12 methods
   Garnet Chan, S. Sharma, J. Yang, R. Olivares  : DMRG
   Ulf Ekstrom                                   : XCFun DFT Library
   Mihaly Kallay                                 : mrcc  (arbitrary order and MRCC methods)
   Andreas Klamt, Michael Diedenhofen            : otool_cosmo (COSMO solvation model)
   Jiri Pittner, Ondrej Demel                    : Mk-CCSD
   Frank Weinhold                                : gennbo (NPA and NBO analysis)
   Christopher J. Cramer and Donald G. Truhlar   : smd solvation model
   Lars Goerigk                                  : TD-DFT with DH, B97 family of functionals
   V. Asgeirsson, H. Jonsson                     : NEB implementation
   FAccTs GmbH                                   : IRC, NEB, NEB-TS, Multilevel, MM, QM/MM, CI optimization
   S Lehtola, MJT Oliveira, MAL Marques          : LibXC Library


 Your calculation uses the libint2 library for the computation of 2-el integrals
 For citations please refer to: http://libint.valeyev.net

 Your ORCA version has been built with support for libXC version: 4.2.3
 For citations please refer to: https://tddft.org/programs/libxc/

 This ORCA versions uses:
   CBLAS   interface :  Fast vector & matrix operations
   LAPACKE interface :  Fast linear algebra routines
   SCALAPACK package :  Parallel linear algebra routines


----- Orbital basis set information -----
Your calculation utilizes the basis: 6-31G
   H-He, Li-Ne : W. J. Hehre, R. Ditchfield and J.A. Pople, J. Chem. Phys. 56, 2257 (1972).
                 Note: He and Ne are unpublished basis sets taken from the Gaussian program.
                 Note: Li and B from J. D. Dill and J. A. Pople, J. Chem. Phys. 62, 2921 (1975).
   Na - Ar     : M. M. Francl, W. J. Pietro, W. J. Hehre, J. S. Binkley, M. S. Gordon, 
                 D. J. DeFrees and J. A. Pople, J. Chem. Phys. 77, 3654 (1982).
   K - Zn      : V. A. Rassolov, J. A. Pople, M. A. Ratner, and T. L. Windus, J. Chem. Phys. 109, 1223 (1998).

================================================================================
                                        WARNINGS
                       Please study these warnings very carefully!
================================================================================


WARNING: Geometry Optimization
  ===> : Switching off AutoStart
         For restart on a previous wavefunction, please use MOREAD

INFO   : the flag for use of LIBINT has been found!

================================================================================
                                       INPUT FILE
================================================================================
NAME = ensemble_285_285.inp
|  1> # Test redundant internal optimization
|  2> #
|  3> ! RKS B3LYP  Opt TightSCF SmallPrint
|  4> 
|  5> %basis
|  6>         Basis "6-31G"
|  7> end
|  8> 
|  9> %geom
| 10> Constraints
| 11> { D 4  0  19  14  285.0   C } # D for Dihedral angle
| 12> { D 0  19  14  12  285.0   C } # D for Dihedral angle
| 13> { D 0  4  3  2   C } # D for Dihedral angle
| 14> { D 4  3  2  1   C } # D for Dihedral angle
| 15> { D 3  2  1  0   C } # D for Dihedral angle
| 16> { D 2  1  0  4   C } # D for Dihedral angle
| 17> { D 1  0  4  3   C } # D for Dihedral angle
| 18> { D 14  15  16  17   C } # D for Dihedral angle
| 19> { D 15  16  17  12   C } # D for Dihedral angle
| 20> { D 16  17  12  14   C } # D for Dihedral angle
| 21> { D 17  12  14  15   C } # D for Dihedral angle
| 22> { D 12  14  15  16   C } # D for Dihedral angle
| 23> end
| 24> end
| 25> 
| 26> 
| 27> #%pal 
| 28> #nprocs 8
| 29> #end
| 30> 
| 31> * xyz 0 1
| 32> C  -21.048   26.222   46.251
| 33> C  -20.361   27.558   45.944
| 34> C  -20.329   28.222   47.341
| 35> C  -20.110   27.022   48.296
| 36> O  -20.473   25.807   47.535
| 37> H  -20.833   25.428   45.533
| 38> H  -19.344   27.382   45.576
| 39> H  -20.898   28.157   45.201
| 40> H  -19.543   28.978   47.434
| 41> H  -21.289   28.710   47.548
| 42> H  -20.733   27.082   49.195
| 43> H  -19.064   26.913   48.597
| 44> C  -23.263   24.508   45.027
| 45> H  -24.044   23.733   44.974
| 46> C  -23.203   25.146   46.420
| 47> C  -22.418   24.080   47.220
| 48> C  -21.414   23.527   46.178
| 49> O  -21.935   23.910   44.847
| 50> H  -23.407   25.218   44.211
| 51> O  -22.472   26.381   46.366
| 52> H  -24.194   25.349   46.842
| 53> H  -21.919   24.493   48.102
| 54> H  -23.096   23.288   47.560
| 55> H  -21.317   22.437   46.224
| 56> H  -20.421   23.975   46.275
| 57> *
| 58> 
| 59>                          ****END OF INPUT****
================================================================================

                       *****************************
                       * Geometry Optimization Run *
                       *****************************

Geometry optimization settings:
Update method            Update   .... BFGS
Choice of coordinates    CoordSys .... Z-matrix Internals
Initial Hessian          InHess   .... Almoef's Model

Convergence Tolerances:
Energy Change            TolE     ....  5.0000e-06 Eh
Max. Gradient            TolMAXG  ....  3.0000e-04 Eh/bohr
RMS Gradient             TolRMSG  ....  1.0000e-04 Eh/bohr
Max. Displacement        TolMAXD  ....  4.0000e-03 bohr
RMS Displacement         TolRMSD  ....  2.0000e-03 bohr
Strict Convergence                ....  False
------------------------------------------------------------------------------
                        ORCA OPTIMIZATION COORDINATE SETUP
------------------------------------------------------------------------------

The optimization will be done in new redundant internal coordinates
Making redundant internal coordinates   ...  (new redundants) done
Evaluating the initial hessian          ...  (Almloef) done
Evaluating the coordinates              ...  done
Calculating the B-matrix                .... done
Calculating the G-matrix                .... done
Diagonalizing the G-matrix              .... done
Imposing constraints:
 Iter   0:  RMS(Cart)=    0.0000596119 RMS(Int)=    0.0000350127
 Iter   1:  RMS(Cart)=    0.0000309649 RMS(Int)=    0.0000192124
 Iter   2:  RMS(Cart)=    0.0000161919 RMS(Int)=    0.0000112646
 Iter   3:  RMS(Cart)=    0.0000085457 RMS(Int)=    0.0000075294
 Iter   4:  RMS(Cart)=    0.0000045831 RMS(Int)=    0.0000059431
 Iter   5:  RMS(Cart)=    0.0000025421 RMS(Int)=    0.0000052939
 Iter   6:  RMS(Cart)=    0.0000015176 RMS(Int)=    0.0000049882
 Iter   7:  RMS(Cart)=    0.0000010335 RMS(Int)=    0.0000047976
 Iter   8:  RMS(Cart)=    0.0000008215 RMS(Int)=    0.0000046460
 Iter   9:  RMS(Cart)=    0.0000007293 RMS(Int)=    0.0000045095
 Iter  10:  RMS(Cart)=    0.0000006831 RMS(Int)=    0.0000043804
 Iter  11:  RMS(Cart)=    0.0000006540 RMS(Int)=    0.0000042564
 Iter  12:  RMS(Cart)=    0.0000006315 RMS(Int)=    0.0000041366
 Iter  13:  RMS(Cart)=    0.0000006120 RMS(Int)=    0.0000040206
 Iter  14:  RMS(Cart)=    0.0000005940 RMS(Int)=    0.0000039081
 Iter  15:  RMS(Cart)=    0.0000005770 RMS(Int)=    0.0000037992
 Iter  16:  RMS(Cart)=    0.0000005607 RMS(Int)=    0.0000036936
 Iter  17:  RMS(Cart)=    0.0000005450 RMS(Int)=    0.0000035912
 Iter  18:  RMS(Cart)=    0.0000005298 RMS(Int)=    0.0000034919
 Iter  19:  RMS(Cart)=    0.0000005152 RMS(Int)=    0.0000033957
 Iter  20:  RMS(Cart)=    0.0000005010 RMS(Int)=    0.0000033024
 Iter  21:  RMS(Cart)=    0.0000004872 RMS(Int)=    0.0000032119
 Iter  22:  RMS(Cart)=    0.0000004739 RMS(Int)=    0.0000031241
 Iter  23:  RMS(Cart)=    0.0000004609 RMS(Int)=    0.0000030390
 Iter  24:  RMS(Cart)=    0.0000004484 RMS(Int)=    0.0000029565
 Iter  25:  RMS(Cart)=    0.0000004362 RMS(Int)=    0.0000028764
 Iter  26:  RMS(Cart)=    0.0000004244 RMS(Int)=    0.0000027988
 Iter  27:  RMS(Cart)=    0.0000004129 RMS(Int)=    0.0000027234
 Iter  28:  RMS(Cart)=    0.0000004018 RMS(Int)=    0.0000026503
 Iter  29:  RMS(Cart)=    0.0000003910 RMS(Int)=    0.0000025794
 Iter  30:  RMS(Cart)=    0.0000003805 RMS(Int)=    0.0000025105
 Iter  31:  RMS(Cart)=    0.0000003704 RMS(Int)=    0.0000024438
 Iter  32:  RMS(Cart)=    0.0000003605 RMS(Int)=    0.0000023789
 Iter  33:  RMS(Cart)=    0.0000003509 RMS(Int)=    0.0000023160
 Iter  34:  RMS(Cart)=    0.0000003416 RMS(Int)=    0.0000022550
 Iter  35:  RMS(Cart)=    0.0000003326 RMS(Int)=    0.0000021957
 Iter  36:  RMS(Cart)=    0.0000003238 RMS(Int)=    0.0000021382
 Iter  37:  RMS(Cart)=    0.0000003153 RMS(Int)=    0.0000020823
 Iter  38:  RMS(Cart)=    0.0000003070 RMS(Int)=    0.0000020281
 Iter  39:  RMS(Cart)=    0.0000002989 RMS(Int)=    0.0000019754
 Iter  40:  RMS(Cart)=    0.0000002911 RMS(Int)=    0.0000019243
 Iter  41:  RMS(Cart)=    0.0000002835 RMS(Int)=    0.0000018747
 Iter  42:  RMS(Cart)=    0.0000002762 RMS(Int)=    0.0000018264
 Iter  43:  RMS(Cart)=    0.0000002690 RMS(Int)=    0.0000017796
 Iter  44:  RMS(Cart)=    0.0000002620 RMS(Int)=    0.0000017342
 Iter  45:  RMS(Cart)=    0.0000002553 RMS(Int)=    0.0000016900
 Iter  46:  RMS(Cart)=    0.0000002487 RMS(Int)=    0.0000016471
 Iter  47:  RMS(Cart)=    0.0000002423 RMS(Int)=    0.0000016054
 Iter  48:  RMS(Cart)=    0.0000002361 RMS(Int)=    0.0000015649
 Iter  49:  RMS(Cart)=    0.0000002300 RMS(Int)=    0.0000015256
 Iter  50:  RMS(Cart)=    0.0000002241 RMS(Int)=    0.0000014874
 Iter  51:  RMS(Cart)=    0.0000002184 RMS(Int)=    0.0000014502
 Iter  52:  RMS(Cart)=    0.0000002129 RMS(Int)=    0.0000014142
 Iter  53:  RMS(Cart)=    0.0000002075 RMS(Int)=    0.0000013791
 Iter  54:  RMS(Cart)=    0.0000002022 RMS(Int)=    0.0000013450
 Iter  55:  RMS(Cart)=    0.0000001971 RMS(Int)=    0.0000013119
 Iter  56:  RMS(Cart)=    0.0000001921 RMS(Int)=    0.0000012797
 Iter  57:  RMS(Cart)=    0.0000001873 RMS(Int)=    0.0000012484
 Iter  58:  RMS(Cart)=    0.0000001826 RMS(Int)=    0.0000012180
 Iter  59:  RMS(Cart)=    0.0000001780 RMS(Int)=    0.0000011885
 Iter  60:  RMS(Cart)=    0.0000001735 RMS(Int)=    0.0000011597
 Iter  61:  RMS(Cart)=    0.0000001692 RMS(Int)=    0.0000011318
 Iter  62:  RMS(Cart)=    0.0000001650 RMS(Int)=    0.0000011046
 Iter  63:  RMS(Cart)=    0.0000001609 RMS(Int)=    0.0000010782
 Iter  64:  RMS(Cart)=    0.0000001569 RMS(Int)=    0.0000010525
 Iter  65:  RMS(Cart)=    0.0000001530 RMS(Int)=    0.0000010276
 Iter  66:  RMS(Cart)=    0.0000001492 RMS(Int)=    0.0000010033
 Iter  67:  RMS(Cart)=    0.0000001456 RMS(Int)=    0.0000009797
 Iter  68:  RMS(Cart)=    0.0000001420 RMS(Int)=    0.0000009567
 Iter  69:  RMS(Cart)=    0.0000001385 RMS(Int)=    0.0000009344
 Iter  70:  RMS(Cart)=    0.0000001351 RMS(Int)=    0.0000009126
 Iter  71:  RMS(Cart)=    0.0000001318 RMS(Int)=    0.0000008915
 Iter  72:  RMS(Cart)=    0.0000001286 RMS(Int)=    0.0000008710
 Iter  73:  RMS(Cart)=    0.0000001254 RMS(Int)=    0.0000008510
 Iter  74:  RMS(Cart)=    0.0000001224 RMS(Int)=    0.0000008315
 Iter  75:  RMS(Cart)=    0.0000001194 RMS(Int)=    0.0000008126
 Iter  76:  RMS(Cart)=    0.0000001165 RMS(Int)=    0.0000007941
 Iter  77:  RMS(Cart)=    0.0000001137 RMS(Int)=    0.0000007762
 Iter  78:  RMS(Cart)=    0.0000001109 RMS(Int)=    0.0000007588
 Iter  79:  RMS(Cart)=    0.0000001083 RMS(Int)=    0.0000007418
 Iter  80:  RMS(Cart)=    0.0000001057 RMS(Int)=    0.0000007253
 Iter  81:  RMS(Cart)=    0.0000001031 RMS(Int)=    0.0000007092
 Iter  82:  RMS(Cart)=    0.0000001007 RMS(Int)=    0.0000006935
 Iter  83:  RMS(Cart)=    0.0000000983 RMS(Int)=    0.0000006783
 Iter  84:  RMS(Cart)=    0.0000000959 RMS(Int)=    0.0000006635
 Iter  85:  RMS(Cart)=    0.0000000936 RMS(Int)=    0.0000006490
 Iter  86:  RMS(Cart)=    0.0000000914 RMS(Int)=    0.0000006350
 Iter  87:  RMS(Cart)=    0.0000000892 RMS(Int)=    0.0000006213
 Iter  88:  RMS(Cart)=    0.0000000871 RMS(Int)=    0.0000006079
 Iter  89:  RMS(Cart)=    0.0000000851 RMS(Int)=    0.0000005950
 Iter  90:  RMS(Cart)=    0.0000000831 RMS(Int)=    0.0000005823
 Iter  91:  RMS(Cart)=    0.0000000811 RMS(Int)=    0.0000005700
 Iter  92:  RMS(Cart)=    0.0000000792 RMS(Int)=    0.0000005580
 Iter  93:  RMS(Cart)=    0.0000000774 RMS(Int)=    0.0000005463
 Iter  94:  RMS(Cart)=    0.0000000756 RMS(Int)=    0.0000005350
 Iter  95:  RMS(Cart)=    0.0000000738 RMS(Int)=    0.0000005239
 Iter  96:  RMS(Cart)=    0.0000000721 RMS(Int)=    0.0000005131
 Iter  97:  RMS(Cart)=    0.0000000704 RMS(Int)=    0.0000005026
 Iter  98:  RMS(Cart)=    0.0000000688 RMS(Int)=    0.0000004923
 Iter  99:  RMS(Cart)=    0.0000000672 RMS(Int)=    0.0000004823
 RMS(Cart) too big - taking linear step, building new B-matrix and trying again
Imposing constraints:
 Iter   0:  RMS(Cart)=    0.0000309648 RMS(Int)=    0.0000192124
 Iter   1:  RMS(Cart)=    0.0000161918 RMS(Int)=    0.0000112647
 Iter   2:  RMS(Cart)=    0.0000085457 RMS(Int)=    0.0000075295
 Iter   3:  RMS(Cart)=    0.0000045831 RMS(Int)=    0.0000059432
 Iter   4:  RMS(Cart)=    0.0000025421 RMS(Int)=    0.0000052940
 Iter   5:  RMS(Cart)=    0.0000015176 RMS(Int)=    0.0000049882
 Iter   6:  RMS(Cart)=    0.0000010335 RMS(Int)=    0.0000047976
 Iter   7:  RMS(Cart)=    0.0000008215 RMS(Int)=    0.0000046460
 Iter   8:  RMS(Cart)=    0.0000007293 RMS(Int)=    0.0000045095
 Iter   9:  RMS(Cart)=    0.0000006831 RMS(Int)=    0.0000043804
 Iter  10:  RMS(Cart)=    0.0000006540 RMS(Int)=    0.0000042564
 Iter  11:  RMS(Cart)=    0.0000006315 RMS(Int)=    0.0000041366
 Iter  12:  RMS(Cart)=    0.0000006120 RMS(Int)=    0.0000040206
 Iter  13:  RMS(Cart)=    0.0000005940 RMS(Int)=    0.0000039081
 Iter  14:  RMS(Cart)=    0.0000005770 RMS(Int)=    0.0000037992
 Iter  15:  RMS(Cart)=    0.0000005607 RMS(Int)=    0.0000036936
 Iter  16:  RMS(Cart)=    0.0000005450 RMS(Int)=    0.0000035912
 Iter  17:  RMS(Cart)=    0.0000005298 RMS(Int)=    0.0000034919
 Iter  18:  RMS(Cart)=    0.0000005152 RMS(Int)=    0.0000033957
 Iter  19:  RMS(Cart)=    0.0000005010 RMS(Int)=    0.0000033024
 Iter  20:  RMS(Cart)=    0.0000004872 RMS(Int)=    0.0000032119
 Iter  21:  RMS(Cart)=    0.0000004739 RMS(Int)=    0.0000031241
 Iter  22:  RMS(Cart)=    0.0000004609 RMS(Int)=    0.0000030390
 Iter  23:  RMS(Cart)=    0.0000004484 RMS(Int)=    0.0000029565
 Iter  24:  RMS(Cart)=    0.0000004362 RMS(Int)=    0.0000028764
 Iter  25:  RMS(Cart)=    0.0000004244 RMS(Int)=    0.0000027987
 Iter  26:  RMS(Cart)=    0.0000004129 RMS(Int)=    0.0000027234
 Iter  27:  RMS(Cart)=    0.0000004018 RMS(Int)=    0.0000026503
 Iter  28:  RMS(Cart)=    0.0000003910 RMS(Int)=    0.0000025793
 Iter  29:  RMS(Cart)=    0.0000003805 RMS(Int)=    0.0000025105
 Iter  30:  RMS(Cart)=    0.0000003704 RMS(Int)=    0.0000024437
 Iter  31:  RMS(Cart)=    0.0000003605 RMS(Int)=    0.0000023789
 Iter  32:  RMS(Cart)=    0.0000003509 RMS(Int)=    0.0000023160
 Iter  33:  RMS(Cart)=    0.0000003416 RMS(Int)=    0.0000022549
 Iter  34:  RMS(Cart)=    0.0000003326 RMS(Int)=    0.0000021957
 Iter  35:  RMS(Cart)=    0.0000003238 RMS(Int)=    0.0000021381
 Iter  36:  RMS(Cart)=    0.0000003153 RMS(Int)=    0.0000020823
 Iter  37:  RMS(Cart)=    0.0000003070 RMS(Int)=    0.0000020280
 Iter  38:  RMS(Cart)=    0.0000002989 RMS(Int)=    0.0000019754
 Iter  39:  RMS(Cart)=    0.0000002911 RMS(Int)=    0.0000019243
 Iter  40:  RMS(Cart)=    0.0000002835 RMS(Int)=    0.0000018746
 Iter  41:  RMS(Cart)=    0.0000002762 RMS(Int)=    0.0000018264
 Iter  42:  RMS(Cart)=    0.0000002690 RMS(Int)=    0.0000017796
 Iter  43:  RMS(Cart)=    0.0000002620 RMS(Int)=    0.0000017341
 Iter  44:  RMS(Cart)=    0.0000002552 RMS(Int)=    0.0000016899
 Iter  45:  RMS(Cart)=    0.0000002487 RMS(Int)=    0.0000016470
 Iter  46:  RMS(Cart)=    0.0000002423 RMS(Int)=    0.0000016054
 Iter  47:  RMS(Cart)=    0.0000002361 RMS(Int)=    0.0000015649
 Iter  48:  RMS(Cart)=    0.0000002300 RMS(Int)=    0.0000015255
 Iter  49:  RMS(Cart)=    0.0000002241 RMS(Int)=    0.0000014873
 Iter  50:  RMS(Cart)=    0.0000002184 RMS(Int)=    0.0000014502
 Iter  51:  RMS(Cart)=    0.0000002129 RMS(Int)=    0.0000014141
 Iter  52:  RMS(Cart)=    0.0000002075 RMS(Int)=    0.0000013791
 Iter  53:  RMS(Cart)=    0.0000002022 RMS(Int)=    0.0000013450
 Iter  54:  RMS(Cart)=    0.0000001971 RMS(Int)=    0.0000013119
 Iter  55:  RMS(Cart)=    0.0000001921 RMS(Int)=    0.0000012797
 Iter  56:  RMS(Cart)=    0.0000001873 RMS(Int)=    0.0000012484
 Iter  57:  RMS(Cart)=    0.0000001826 RMS(Int)=    0.0000012180
 Iter  58:  RMS(Cart)=    0.0000001780 RMS(Int)=    0.0000011884
 Iter  59:  RMS(Cart)=    0.0000001735 RMS(Int)=    0.0000011597
 Iter  60:  RMS(Cart)=    0.0000001692 RMS(Int)=    0.0000011318
 Iter  61:  RMS(Cart)=    0.0000001650 RMS(Int)=    0.0000011046
 Iter  62:  RMS(Cart)=    0.0000001609 RMS(Int)=    0.0000010782
 Iter  63:  RMS(Cart)=    0.0000001569 RMS(Int)=    0.0000010525
 Iter  64:  RMS(Cart)=    0.0000001530 RMS(Int)=    0.0000010275
 Iter  65:  RMS(Cart)=    0.0000001492 RMS(Int)=    0.0000010033
 Iter  66:  RMS(Cart)=    0.0000001455 RMS(Int)=    0.0000009796
CONVERGED
Small eigenvalue found = 9.864e-03
Small eigenvalue found = 2.294e-02
The first mode is                       ....   80
The number of degrees of freedom        ....   69
Storing new coordinates                 .... done

    -----------------------------------------------------------------
                    Redundant Internal Coordinates


    -----------------------------------------------------------------
         Definition                    Initial Value    Approx d2E/dq
    -----------------------------------------------------------------
      1. B(C   1,C   0)                  1.5333         0.369027   
      2. B(C   2,C   1)                  1.5471         0.350825   
      3. B(C   3,C   2)                  1.5492         0.348147   
      4. B(O   4,C   0)                  1.4668         0.422031   
      5. B(O   4,C   3)                  1.4789         0.403699   
      6. B(H   5,C   0)                  1.0919         0.357632   
      7. B(H   6,C   1)                  1.0958         0.352561   
      8. B(H   7,C   1)                  1.0951         0.353431   
      9. B(H   8,C   2)                  1.0945         0.354166   
     10. B(H   9,C   2)                  1.0966         0.351438   
     11. B(H  10,C   3)                  1.0954         0.353010   
     12. B(H  11,C   3)                  1.0939         0.354989   
     13. B(H  13,C  12)                  1.1015         0.345150   
     14. B(C  14,C  12)                  1.5333         0.369036   
     15. B(C  15,C  14)                  1.5468         0.351220   
     16. B(C  16,C  15)                  1.5491         0.348311   
     17. B(O  17,C  12)                  1.4675         0.420932   
     18. B(O  17,C  16)                  1.4798         0.402410   
     19. B(H  18,C  12)                  1.0912         0.358531   
     20. B(O  19,C   0)                  1.4375         0.470069   
     21. B(O  19,C  14)                  1.4361         0.472346   
     22. B(H  20,C  14)                  1.0961         0.352156   
     23. B(H  21,C  15)                  1.0943         0.354455   
     24. B(H  22,C  15)                  1.0966         0.351464   
     25. B(H  23,C  16)                  1.0953         0.353190   
     26. B(H  24,C  16)                  1.0937         0.355249   
     27. A(C   1,C   0,H   5)          114.4406         0.323302   
     28. A(H   5,C   0,O  19)          109.1519         0.334458   
     29. A(O   4,C   0,H   5)          107.0168         0.328541   
     30. A(C   1,C   0,O   4)          104.2508         0.367935   
     31. A(O   4,C   0,O  19)          110.4623         0.381216   
     32. A(C   1,C   0,O  19)          111.3172         0.374825   
     33. A(C   2,C   1,H   7)          112.8333         0.320016   
     34. A(C   2,C   1,H   6)          110.6702         0.319888   
     35. A(C   0,C   1,H   6)          110.0681         0.322546   
     36. A(C   0,C   1,C   2)          101.6783         0.358729   
     37. A(C   0,C   1,H   7)          113.1246         0.322677   
     38. A(H   6,C   1,H   7)          108.3679         0.289027   
     39. A(C   1,C   2,H   9)          110.0795         0.319721   
     40. A(C   1,C   2,H   8)          112.8313         0.320125   
     41. A(C   3,C   2,H   8)          112.4032         0.319725   
     42. A(C   3,C   2,H   9)          110.6147         0.319321   
     43. A(H   8,C   2,H   9)          107.7731         0.288977   
     44. A(C   1,C   2,C   3)          103.1285         0.355196   
     45. A(C   2,C   3,H  10)          112.5254         0.319554   
     46. A(C   2,C   3,O   4)          106.5267         0.361529   
     47. A(O   4,C   3,H  10)          109.1301         0.325449   
     48. A(C   2,C   3,H  11)          112.4569         0.319846   
     49. A(O   4,C   3,H  11)          107.1240         0.325748   
     50. A(H  10,C   3,H  11)          108.8727         0.289284   
     51. A(C   0,O   4,C   3)          108.3128         0.371320   
     52. A(H  13,C  12,C  14)          111.3583         0.321427   
     53. A(H  13,C  12,O  17)          110.4266         0.326483   
     54. A(C  14,C  12,O  17)          104.2154         0.367772   
     55. A(H  13,C  12,H  18)          109.1618         0.288714   
     56. A(O  17,C  12,H  18)          107.0282         0.328536   
     57. A(C  14,C  12,H  18)          114.4438         0.323437   
     58. A(C  12,C  14,O  19)          110.0945         0.375139   
     59. A(C  15,C  14,O  19)          110.7189         0.371952   
     60. A(C  12,C  14,H  20)          113.0441         0.322487   
     61. A(C  15,C  14,H  20)          112.7911         0.319886   
     62. A(O  19,C  14,H  20)          108.3856         0.333870   
     63. A(C  12,C  14,C  15)          101.7110         0.358799   
     64. A(C  14,C  15,H  21)          112.8414         0.320227   
     65. A(C  16,C  15,H  21)          112.4176         0.319792   
     66. A(C  14,C  15,H  22)          110.1403         0.319784   
     67. A(C  16,C  15,H  22)          110.5760         0.319350   
     68. A(C  14,C  15,C  16)          103.1232         0.355292   
     69. A(H  21,C  15,H  22)          107.7347         0.289017   
     70. A(C  15,C  16,H  23)          112.6078         0.319605   
     71. A(H  23,C  16,H  24)          108.8757         0.289340   
     72. A(O  17,C  16,H  23)          109.0587         0.325305   
     73. A(C  15,C  16,H  24)          112.4932         0.319909   
     74. A(O  17,C  16,H  24)          107.0630         0.325616   
     75. A(C  15,C  16,O  17)          106.5258         0.361361   
     76. A(C  12,O  17,C  16)          108.2861         0.370949   
     77. A(C   0,O  19,C  14)          114.3384         0.388761   
     78. D(C   2,C   1,C   0,H   5)   -156.5719         0.010890   
     79. D(H   7,C   1,C   0,O   4)   -161.2893         0.010890   
     80. D(H   7,C   1,C   0,H   5)     82.1534         0.010890   
     81. D(H   6,C   1,C   0,O   4)     77.3246         0.010890   
     82. D(C   2,C   1,C   0,O  19)     79.0825         0.010890   
     83. D(C   2,C   1,C   0,O   4)    -40.0146         0.010890 C 
     84. D(H   6,C   1,C   0,O  19)   -163.5782         0.010890   
     85. D(H   7,C   1,C   0,O  19)    -42.1921         0.010890   
     86. D(H   6,C   1,C   0,H   5)    -39.2327         0.010890   
     87. D(H   9,C   2,C   1,H   7)     38.4577         0.009912   
     88. D(C   3,C   2,C   1,H   7)    156.5040         0.009912   
     89. D(H   8,C   2,C   1,H   7)    -81.9750         0.009912   
     90. D(H   8,C   2,C   1,C   0)    156.5478         0.009912   
     91. D(H   9,C   2,C   1,H   6)    160.0777         0.009912   
     92. D(C   3,C   2,C   1,H   6)    -81.8760         0.009912   
     93. D(H   9,C   2,C   1,C   0)    -83.0195         0.009912   
     94. D(H   8,C   2,C   1,H   6)     39.6450         0.009912   
     95. D(C   3,C   2,C   1,C   0)     35.0268         0.009912 C 
     96. D(H  10,C   3,C   2,H   9)    -20.0724         0.009774   
     97. D(O   4,C   3,C   2,H   9)     99.4741         0.009774   
     98. D(H  11,C   3,C   2,C   1)     98.8666         0.009774   
     99. D(H  10,C   3,C   2,C   1)   -137.7432         0.009774   
    100. D(O   4,C   3,C   2,C   1)    -18.1967         0.009774 C 
    101. D(H  11,C   3,C   2,H   8)    -22.9435         0.009774   
    102. D(H  11,C   3,C   2,H   9)   -143.4627         0.009774   
    103. D(H  10,C   3,C   2,H   8)    100.4467         0.009774   
    104. D(O   4,C   3,C   2,H   8)   -140.0068         0.009774   
    105. D(C   3,O   4,C   0,H   5)    151.2039         0.014035   
    106. D(C   3,O   4,C   0,C   1)     29.5920         0.014035 C 
    107. D(C   0,O   4,C   3,C   2)     -6.8730         0.012866 C 
    108. D(C   3,O   4,C   0,O  19)    -90.0845         0.014035   
    109. D(C   0,O   4,C   3,H  10)    114.8547         0.012866   
    110. D(C   0,O   4,C   3,H  11)   -127.4270         0.012866   
    111. D(C  15,C  14,C  12,H  13)     78.9948         0.010890   
    112. D(C  15,C  14,C  12,O  17)    -40.0600         0.010890 C 
    113. D(C  15,C  14,C  12,H  18)   -156.6103         0.010890   
    114. D(O  19,C  14,C  12,H  13)   -163.5821         0.010890   
    115. D(O  19,C  14,C  12,O  17)     77.3631         0.010890   
    116. D(O  19,C  14,C  12,H  18)    -39.1872         0.010890   
    117. D(H  20,C  14,C  12,H  13)    -42.2095         0.010890   
    118. D(H  20,C  14,C  12,O  17)   -161.2643         0.010890   
    119. D(H  20,C  14,C  12,H  18)     82.1855         0.010890   
    120. D(C  16,C  15,C  14,C  12)     35.0822         0.009933 C 
    121. D(C  16,C  15,C  14,O  19)    -81.8889         0.009933   
    122. D(C  16,C  15,C  14,H  20)    156.4625         0.009933   
    123. D(H  21,C  15,C  14,C  12)    156.6226         0.009933   
    124. D(H  21,C  15,C  14,O  19)     39.6514         0.009933   
    125. D(H  21,C  15,C  14,H  20)    -81.9972         0.009933   
    126. D(H  22,C  15,C  14,C  12)    -82.9443         0.009933   
    127. D(H  22,C  15,C  14,O  19)    160.0846         0.009933   
    128. D(H  22,C  15,C  14,H  20)     38.4360         0.009933   
    129. D(O  17,C  16,C  15,C  14)    -18.2195         0.009782 C 
    130. D(H  24,C  16,C  15,H  21)    -23.0375         0.009782   
    131. D(O  17,C  16,C  15,H  22)     99.5013         0.009782   
    132. D(H  23,C  16,C  15,C  14)   -137.7253         0.009782   
    133. D(H  23,C  16,C  15,H  21)    100.4481         0.009782   
    134. D(H  23,C  16,C  15,H  22)    -20.0045         0.009782   
    135. D(O  17,C  16,C  15,H  21)   -140.0461         0.009782   
    136. D(H  24,C  16,C  15,C  14)     98.7891         0.009782   
    137. D(H  24,C  16,C  15,H  22)   -143.4902         0.009782   
    138. D(C  16,O  17,C  12,H  13)    -90.0840         0.013963   
    139. D(C  16,O  17,C  12,C  14)     29.6027         0.013963 C 
    140. D(C  16,O  17,C  12,H  18)    151.2057         0.013963   
    141. D(C  12,O  17,C  16,C  15)     -6.8710         0.012786 C 
    142. D(C  12,O  17,C  16,H  23)    114.9146         0.012786   
    143. D(C  12,O  17,C  16,H  24)   -127.4350         0.012786   
    144. D(C  14,O  19,C   0,C   1)    169.6815         0.017417   
    145. D(C  14,O  19,C   0,O   4)    -75.0000         0.017417 C 
    146. D(C  14,O  19,C   0,H   5)     42.4033         0.017417   
    147. D(C   0,O  19,C  14,C  12)    -75.0000         0.017589 C 
    148. D(C   0,O  19,C  14,C  15)     36.6819         0.017589   
    149. D(C   0,O  19,C  14,H  20)    160.8868         0.017589   
    -----------------------------------------------------------------

Number of atoms                         .... 25
Number of degrees of freedom            .... 149

         *************************************************************
         *                GEOMETRY OPTIMIZATION CYCLE   1            *
         *************************************************************
---------------------------------
CARTESIAN COORDINATES (ANGSTROEM)
---------------------------------
  C    -21.048011   26.222066   46.250905
  C    -20.360964   27.558052   45.944001
  C    -20.328996   28.221956   47.341037
  C    -20.110069   27.021906   48.295992
  O    -20.473080   25.806949   47.534905
  H    -20.833011   25.428067   45.532904
  H    -19.343953   27.382046   45.576036
  H    -20.897914   28.157106   45.201008
  H    -19.542976   28.977926   47.434109
  H    -21.288990   28.709972   47.548027
  H    -20.733103   27.081881   49.194970
  H    -19.064084   26.912859   48.597030
  C    -23.263041   24.507928   45.027023
  H    -24.044033   23.732914   44.974111
  C    -23.202984   25.146023   46.419977
  C    -22.417936   24.080089   47.220023
  C    -21.413976   23.527032   46.178012
  O    -21.935043   23.909934   44.847011
  H    -23.407087   25.217870   44.210981
  O    -22.472019   26.381038   46.365854
  H    -24.193977   25.349039   46.841987
  H    -21.918907   24.493157   48.101975
  H    -23.095909   23.288102   47.560105
  H    -21.316959   22.437036   46.224082
  H    -20.420978   23.975052   46.274936

----------------------------
CARTESIAN COORDINATES (A.U.)
----------------------------
  NO LB      ZA    FRAG     MASS         X           Y           Z
   0 C     6.0000    0    12.011  -39.774977   49.552523   87.401544
   1 C     6.0000    0    12.011  -38.476646   52.077171   86.821578
   2 C     6.0000    0    12.011  -38.416235   53.331769   89.461595
   3 C     6.0000    0    12.011  -38.002522   51.064002   91.266199
   4 O     8.0000    0    15.999  -38.688514   48.768067   89.827953
   5 H     1.0000    0     1.008  -39.368686   48.052083   86.044718
   6 H     1.0000    0     1.008  -36.554773   51.744567   86.126225
   7 H     1.0000    0     1.008  -39.491335   53.209219   85.417526
   8 H     1.0000    0     1.008  -36.930872   54.760344   89.637476
   9 H     1.0000    0     1.008  -40.230361   54.253985   89.852748
  10 H     1.0000    0     1.008  -39.179886   51.177339   92.965021
  11 H     1.0000    0     1.008  -36.025898   50.857933   91.835077
  12 C     6.0000    0    12.011  -43.960776   46.313272   85.088743
  13 H     1.0000    0     1.008  -45.436637   44.848708   84.988754
  14 C     6.0000    0    12.011  -43.847286   47.519096   87.721043
  15 C     6.0000    0    12.011  -42.363760   45.504774   89.232911
  16 C     6.0000    0    12.011  -40.466550   44.459647   87.263797
  17 O     8.0000    0    15.999  -41.451223   45.183227   84.748569
  18 H     1.0000    0     1.008  -44.232985   47.654868   83.546646
  19 O     8.0000    0    15.999  -42.465961   49.852936   87.618767
  20 H     1.0000    0     1.008  -45.719990   47.902742   88.518526
  21 H     1.0000    0     1.008  -41.420732   46.285360   90.899558
  22 H     1.0000    0     1.008  -43.644944   44.008134   89.875574
  23 H     1.0000    0     1.008  -40.283215   42.399854   87.350855
  24 H     1.0000    0     1.008  -38.590055   45.306282   87.446956

--------------------------------
INTERNAL COORDINATES (ANGSTROEM)
--------------------------------
 C      0   0   0     0.000000000000     0.00000000     0.00000000
 C      1   0   0     1.533334275362     0.00000000     0.00000000
 C      2   1   0     1.547103422529   101.67907390     0.00000000
 C      3   2   1     1.549188819996   103.12737509    35.02687180
 O      1   2   3     1.466801281701   104.24948604   319.98542309
 H      1   2   3     1.091872245274   114.43876658   203.42640133
 H      2   1   3     1.095759553917   110.06782188   117.34000099
 H      2   1   3     1.095088580892   113.12442239   238.72597460
 H      3   2   1     1.094523183857   112.83161078   156.54780790
 H      3   2   1     1.096628013503   110.07982737   276.98070077
 H      4   3   2     1.095413164062   112.52534669   222.25678475
 H      4   3   2     1.093891219455   112.45670684    98.86663270
 C      6   1   2     2.647137321712   101.40084769   228.26746037
 H     13   6   1     1.101542100875   154.76461561   237.45230802
 C     13   6   1     1.533327427525    69.25639879   333.76130042
 C     15  13   6     1.546797013186   101.71065738   286.06019849
 C     16  15  13     1.549060683124   103.12363860    35.08217867
 O     13   6   1     1.467510817677    48.26882313   200.15575916
 H     13   6   1     1.091188343046    92.17482686    89.12859312
 O     15  13   6     1.436141357945   110.09455856    43.48236586
 H     15  13   6     1.096072077922   113.04528988   164.85636651
 H     16  15  13     1.094300689939   112.84129504   156.62226856
 H     16  15  13     1.096607495871   110.14016069   277.05537820
 H     17  16  15     1.095273938337   112.60778995   222.27467884
 H     17  16  15     1.093691912743   112.49317651    98.78901887

---------------------------
INTERNAL COORDINATES (A.U.)
---------------------------
 C      0   0   0     0.000000000000     0.00000000     0.00000000
 C      1   0   0     2.897581852189     0.00000000     0.00000000
 C      2   1   0     2.923601769431   101.67907390     0.00000000
 C      3   2   1     2.927542599525   103.12737509    35.02687180
 O      1   2   3     2.771852715300   104.24948604   319.98542309
 H      1   2   3     2.063339516798   114.43876658   203.42640133
 H      2   1   3     2.070685465531   110.06782188   117.34000099
 H      2   1   3     2.069417510270   113.12442239   238.72597460
 H      3   2   1     2.068349064717   112.83161078   156.54780790
 H      3   2   1     2.072326616307   110.07982737   276.98070077
 H      4   3   2     2.070030883569   112.52534669   222.25678475
 H      4   3   2     2.067154825070   112.45670684    98.86663270
 C      6   1   2     5.002364576917   101.40084769   228.26746037
 H     13   6   1     2.081612895638   154.76461561   237.45230802
 C     13   6   1     2.897568911652    69.25639879   333.76130042
 C     15  13   6     2.923022739688   101.71065738   286.06019849
 C     16  15  13     2.927300455929   103.12363860    35.08217867
 O     13   6   1     2.773193543977    48.26882313   200.15575916
 H     13   6   1     2.062047128885    92.17482686    89.12859312
 O     15  13   6     2.713913856114   110.09455856    43.48236586
 H     15  13   6     2.071276050310   113.04528988   164.85636651
 H     16  15  13     2.067928612145   112.84129504   156.62226856
 H     16  15  13     2.072287843601   110.14016069   277.05537820
 H     17  16  15     2.069767785078   112.60778995   222.27467884
 H     17  16  15     2.066778189969   112.49317651    98.78901887

---------------------
BASIS SET INFORMATION
---------------------
There are 3 groups of distinct atoms

 Group   1 Type C   : 10s4p contracted to 3s2p pattern {631/31}
 Group   2 Type O   : 10s4p contracted to 3s2p pattern {631/31}
 Group   3 Type H   : 4s contracted to 2s pattern {31}

Atom   0C    basis set group =>   1
Atom   1C    basis set group =>   1
Atom   2C    basis set group =>   1
Atom   3C    basis set group =>   1
Atom   4O    basis set group =>   2
Atom   5H    basis set group =>   3
Atom   6H    basis set group =>   3
Atom   7H    basis set group =>   3
Atom   8H    basis set group =>   3
Atom   9H    basis set group =>   3
Atom  10H    basis set group =>   3
Atom  11H    basis set group =>   3
Atom  12C    basis set group =>   1
Atom  13H    basis set group =>   3
Atom  14C    basis set group =>   1
Atom  15C    basis set group =>   1
Atom  16C    basis set group =>   1
Atom  17O    basis set group =>   2
Atom  18H    basis set group =>   3
Atom  19O    basis set group =>   2
Atom  20H    basis set group =>   3
Atom  21H    basis set group =>   3
Atom  22H    basis set group =>   3
Atom  23H    basis set group =>   3
Atom  24H    basis set group =>   3
------------------------------------------------------------------------------
                           ORCA GTO INTEGRAL CALCULATION
------------------------------------------------------------------------------

                         BASIS SET STATISTICS AND STARTUP INFO

 # of primitive gaussian shells          ...  210
 # of primitive gaussian functions       ...  298
 # of contracted shells                  ...   83
 # of contracted basis functions         ...  127
 Highest angular momentum                ...    1
 Maximum contraction depth               ...    6
 Integral package used                   ... LIBINT
 Integral threshhold            Thresh   ...  2.500e-11
 Primitive cut-off              TCut     ...  2.500e-12


------------------------------ INTEGRAL EVALUATION ----------------------------


 * One electron integrals 
 Pre-screening matrix                    ... done
 Shell pair data                         ... done (   0.005 sec)

-------------------------------------------------------------------------------
                                 ORCA SCF
-------------------------------------------------------------------------------

------------
SCF SETTINGS
------------
Hamiltonian:
 Density Functional     Method          .... DFT(GTOs)
 Exchange Functional    Exchange        .... B88
   X-Alpha parameter    XAlpha          ....  0.666667
   Becke's b parameter  XBeta           ....  0.004200
 Correlation Functional Correlation     .... LYP
 LDA part of GGA corr.  LDAOpt          .... VWN-5
 Gradients option       PostSCFGGA      .... off
 Hybrid DFT is turned on
   Fraction HF Exchange ScalHFX         ....  0.200000
   Scaling of DF-GGA-X  ScalDFX         ....  0.720000
   Scaling of DF-GGA-C  ScalDFC         ....  0.810000
   Scaling of DF-LDA-C  ScalLDAC        ....  1.000000
   Perturbative correction              ....  0.000000
   Density functional embedding theory  .... OFF
   NL short-range parameter             ....  4.800000


General Settings:
 Integral files         IntName         .... ensemble_285_285
 Hartree-Fock type      HFTyp           .... RHF
 Total Charge           Charge          ....    0
 Multiplicity           Mult            ....    1
 Number of Electrons    NEL             ....   86
 Basis Dimension        Dim             ....  127
 Nuclear Repulsion      ENuc            ....    705.8134331697 Eh

Convergence Acceleration:
 DIIS                   CNVDIIS         .... on
   Start iteration      DIISMaxIt       ....    12
   Startup error        DIISStart       ....  0.200000
   # of expansion vecs  DIISMaxEq       ....     5
   Bias factor          DIISBfac        ....   1.050
   Max. coefficient     DIISMaxC        ....  10.000
 Newton-Raphson         CNVNR           .... off
 SOSCF                  CNVSOSCF        .... on
   Start iteration      SOSCFMaxIt      ....   150
   Startup grad/error   SOSCFStart      ....  0.003300
 Level Shifting         CNVShift        .... on
   Level shift para.    LevelShift      ....    0.2500
   Turn off err/grad.   ShiftErr        ....    0.0010
 Zerner damping         CNVZerner       .... off
 Static damping         CNVDamp         .... on
   Fraction old density DampFac         ....    0.7000
   Max. Damping (<1)    DampMax         ....    0.9800
   Min. Damping (>=0)   DampMin         ....    0.0000
   Turn off err/grad.   DampErr         ....    0.1000
 Fernandez-Rico         CNVRico         .... off

SCF Procedure:
 Maximum # iterations   MaxIter         ....   125
 SCF integral mode      SCFMode         .... Direct
   Integral package                     .... LIBINT
 Reset frequency        DirectResetFreq ....    20
 Integral Threshold     Thresh          ....  2.500e-11 Eh
 Primitive CutOff       TCut            ....  2.500e-12 Eh

Convergence Tolerance:
 Convergence Check Mode ConvCheckMode   .... Total+1el-Energy
 Convergence forced     ConvForced      .... 0
 Energy Change          TolE            ....  1.000e-08 Eh
 1-El. energy change                    ....  1.000e-05 Eh
 Orbital Gradient       TolG            ....  1.000e-05
 Orbital Rotation angle TolX            ....  1.000e-05
 DIIS Error             TolErr          ....  5.000e-07


Diagonalization of the overlap matrix:
Smallest eigenvalue                        ... 4.096e-03
Time for diagonalization                   ...    0.007 sec
Threshold for overlap eigenvalues          ... 1.000e-08
Number of eigenvalues below threshold      ... 0
Time for construction of square roots      ...    0.010 sec
Total time needed                          ...    0.017 sec

-------------------
DFT GRID GENERATION
-------------------

General Integration Accuracy     IntAcc      ...  4.340
Radial Grid Type                 RadialGrid  ... Gauss-Chebyshev
Angular Grid (max. acc.)         AngularGrid ... Lebedev-110
Angular grid pruning method      GridPruning ... 3 (G Style)
Weight generation scheme         WeightScheme... Becke
Basis function cutoff            BFCut       ...    1.0000e-11
Integration weight cutoff        WCut        ...    1.0000e-14
Grids for H and He will be reduced by one unit

# of grid points (after initial pruning)     ...  29512 (   0.0 sec)
# of grid points (after weights+screening)   ...  26518 (   0.4 sec)
nearest neighbour list constructed           ...    0.0 sec
Grid point re-assignment to atoms done       ...    0.0 sec
Grid point division into batches done        ...    0.1 sec
Reduced shell lists constructed in    0.6 sec

Total number of grid points                  ...    26518
Total number of batches                      ...      426
Average number of points per batch           ...       62
Average number of grid points per atom       ...     1061
Average number of shells per batch           ...    57.33 (69.08%)
Average number of basis functions per batch  ...    92.67 (72.97%)
Average number of large shells per batch     ...    43.07 (75.12%)
Average number of large basis fcns per batch ...    71.41 (77.06%)
Maximum spatial batch extension              ...  19.44, 19.97, 21.29 au
Average spatial batch extension              ...   3.39,  3.47,  3.45 au

Time for grid setup =    1.012 sec

------------------------------
INITIAL GUESS: MODEL POTENTIAL
------------------------------
Loading Hartree-Fock densities                     ... done
Calculating cut-offs                               ... done
Setting up the integral package                    ... done
Initializing the effective Hamiltonian             ... done
Starting the Coulomb interaction                   ... done (   0.6 sec)
Reading the grid                                   ... done
Mapping shells                                     ... done
Starting the XC term evaluation                    ... done (   0.7 sec)
  promolecular density results
     # of electrons  =     85.998025819
     EX              =    -69.881144586
     EC              =     -2.920463843
     EX+EC           =    -72.801608429
Transforming the Hamiltonian                       ... done (   0.0 sec)
Diagonalizing the Hamiltonian                      ... done (   0.0 sec)
Back transforming the eigenvectors                 ... done (   0.0 sec)
Now organizing SCF variables                       ... done
                      ------------------
                      INITIAL GUESS DONE (   2.5 sec)
                      ------------------
--------------
SCF ITERATIONS
--------------
ITER       Energy         Delta-E        Max-DP      RMS-DP      [F,P]     Damp
               ***  Starting incremental Fock matrix formation  ***
  0   -538.1865563247   0.000000000000 0.05862110  0.00306756  0.1846409 0.7000
  1   -538.2925744043  -0.106018079624 0.03411711  0.00218496  0.0796687 0.7000
                               ***Turning on DIIS***
  2   -538.3350526289  -0.042478224603 0.06203850  0.00367804  0.0299388 0.0000
  3   -538.4018497474  -0.066797118438 0.02426055  0.00149280  0.0404082 0.0000
  4   -538.4165165897  -0.014666842339 0.00916087  0.00042131  0.0067421 0.0000
  5   -538.4170501436  -0.000533553891 0.00292509  0.00014333  0.0044076 0.0000
                      *** Initiating the SOSCF procedure ***
                           *** Shutting down DIIS ***
                      *** Re-Reading the Fockian *** 
                      *** Removing any level shift *** 
ITER      Energy       Delta-E        Grad      Rot      Max-DP    RMS-DP
  6   -538.41712597  -0.0000758254  0.000121  0.000121  0.000794  0.000056
               *** Restarting incremental Fock matrix formation ***
  7   -538.41712815  -0.0000021811  0.000076  0.000114  0.000450  0.000023
  8   -538.41712757   0.0000005830  0.000111  0.000064  0.000314  0.000014
  9   -538.41712875  -0.0000011796  0.000011  0.000018  0.000067  0.000004
 10   -538.41712873   0.0000000127  0.000015  0.000010  0.000038  0.000002
                  ***Gradient check signals convergence***
              ***Rediagonalizing the Fockian in SOSCF/NRSCF***

               *****************************************************
               *                     SUCCESS                       *
               *           SCF CONVERGED AFTER  11 CYCLES          *
               *****************************************************

Setting up the final grid:

General Integration Accuracy     IntAcc      ...  4.670
Radial Grid Type                 RadialGrid  ... Gauss-Chebyshev
Angular Grid (max. acc.)         AngularGrid ... Lebedev-302
Angular grid pruning method      GridPruning ... 3 (G Style)
Weight generation scheme         WeightScheme... Becke
Basis function cutoff            BFCut       ...    1.0000e-11
Integration weight cutoff        WCut        ...    1.0000e-14
Grids for H and He will be reduced by one unit

# of grid points (after initial pruning)     ... 115848 (   0.1 sec)
# of grid points (after weights+screening)   ... 101995 (   1.5 sec)
nearest neighbour list constructed           ...    0.0 sec
Grid point re-assignment to atoms done       ...    0.0 sec
Grid point division into batches done        ...    0.8 sec
Reduced shell lists constructed in    2.7 sec

Total number of grid points                  ...   101995
Total number of batches                      ...     1608
Average number of points per batch           ...       63
Average number of grid points per atom       ...     4080
Average number of shells per batch           ...    52.88 (63.72%)
Average number of basis functions per batch  ...    85.76 (67.53%)
Average number of large shells per batch     ...    38.63 (73.05%)
Average number of large basis fcns per batch ...    64.24 (74.90%)
Maximum spatial batch extension              ...  15.71, 19.06, 20.50 au
Average spatial batch extension              ...   2.18,  2.24,  2.26 au

Final grid set up in    4.3 sec
Final integration                            ... done (   2.6 sec)
Change in XC energy                          ...     0.000680165
Integrated number of electrons               ...    85.999883095
Previous integrated no of electrons          ...    86.005467880

----------------
TOTAL SCF ENERGY
----------------

Total Energy       :         -538.41644860 Eh          -14651.05641 eV

Components:
Nuclear Repulsion  :          705.81343317 Eh           19206.15994 eV
Electronic Energy  :        -1244.22988177 Eh          -33857.21635 eV
One Electron Energy:        -2134.42917573 Eh          -58080.77064 eV
Two Electron Energy:          890.19929397 Eh           24223.55429 eV

Virial components:
Potential Energy   :        -1074.32473963 Eh          -29233.86239 eV
Kinetic Energy     :          535.90829104 Eh           14582.80597 eV
Virial Ratio       :            2.00468020


DFT components:
N(Alpha)           :       42.999941547547 electrons
N(Beta)            :       42.999941547547 electrons
N(Total)           :       85.999883095094 electrons
E(X)               :      -56.519124639114 Eh       
E(C)               :       -3.433327267646 Eh       
E(XC)              :      -59.952451906760 Eh       
DFET-embed. en.    :        0.000000000000 Eh       

---------------
SCF CONVERGENCE
---------------

  Last Energy change         ...   -2.6874e-08  Tolerance :   1.0000e-08
  Last MAX-Density change    ...    7.6054e-06  Tolerance :   1.0000e-07
  Last RMS-Density change    ...    3.0289e-07  Tolerance :   5.0000e-09
  Last Orbital Gradient      ...    1.3818e-06  Tolerance :   1.0000e-05
  Last Orbital Rotation      ...    1.7598e-06  Tolerance :   1.0000e-05

             **** THE GBW FILE WAS UPDATED (ensemble_285_285.gbw) ****
             **** DENSITY FILE WAS UPDATED (ensemble_285_285.scfp) ****
             **** ENERGY FILE WAS UPDATED (ensemble_285_285.en.tmp) ****
             **** THE GBW FILE WAS UPDATED (ensemble_285_285.gbw) ****
             **** DENSITY FILE WAS UPDATED (ensemble_285_285.scfp) ****
----------------
ORBITAL ENERGIES
----------------

  NO   OCC          E(Eh)            E(eV) 
   0   2.0000     -19.140853      -520.8491 
   1   2.0000     -19.139156      -520.8029 
   2   2.0000     -19.134574      -520.6782 
   3   2.0000     -10.266085      -279.3544 
   4   2.0000     -10.236835      -278.5585 
   5   2.0000     -10.223890      -278.2062 
   6   2.0000     -10.220850      -278.1235 
   7   2.0000     -10.213704      -277.9290 
   8   2.0000     -10.183018      -277.0940 
   9   2.0000     -10.182832      -277.0889 
  10   2.0000     -10.171049      -276.7683 
  11   2.0000      -1.060547       -28.8589 
  12   2.0000      -1.016328       -27.6557 
  13   2.0000      -0.993482       -27.0340 
  14   2.0000      -0.789588       -21.4858 
  15   2.0000      -0.766317       -20.8525 
  16   2.0000      -0.744648       -20.2629 
  17   2.0000      -0.713969       -19.4281 
  18   2.0000      -0.613710       -16.6999 
  19   2.0000      -0.596054       -16.2195 
  20   2.0000      -0.594826       -16.1860 
  21   2.0000      -0.571037       -15.5387 
  22   2.0000      -0.526541       -14.3279 
  23   2.0000      -0.497760       -13.5447 
  24   2.0000      -0.482484       -13.1290 
  25   2.0000      -0.468506       -12.7487 
  26   2.0000      -0.453592       -12.3429 
  27   2.0000      -0.440050       -11.9744 
  28   2.0000      -0.415083       -11.2950 
  29   2.0000      -0.413209       -11.2440 
  30   2.0000      -0.401411       -10.9229 
  31   2.0000      -0.393883       -10.7181 
  32   2.0000      -0.370727       -10.0880 
  33   2.0000      -0.368392       -10.0244 
  34   2.0000      -0.353695        -9.6245 
  35   2.0000      -0.349729        -9.5166 
  36   2.0000      -0.341306        -9.2874 
  37   2.0000      -0.319180        -8.6853 
  38   2.0000      -0.309510        -8.4222 
  39   2.0000      -0.286253        -7.7893 
  40   2.0000      -0.271332        -7.3833 
  41   2.0000      -0.248489        -6.7617 
  42   2.0000      -0.234468        -6.3802 
  43   0.0000       0.087784         2.3887 
  44   0.0000       0.101939         2.7739 
  45   0.0000       0.108906         2.9635 
  46   0.0000       0.112783         3.0690 
  47   0.0000       0.119816         3.2604 
  48   0.0000       0.129690         3.5291 
  49   0.0000       0.144135         3.9221 
  50   0.0000       0.152645         4.1537 
  51   0.0000       0.154910         4.2153 
  52   0.0000       0.155875         4.2416 
  53   0.0000       0.162908         4.4329 
  54   0.0000       0.175138         4.7657 
  55   0.0000       0.176111         4.7922 
  56   0.0000       0.181885         4.9493 
  57   0.0000       0.183740         4.9998 
  58   0.0000       0.199614         5.4318 
  59   0.0000       0.217340         5.9141 
  60   0.0000       0.223960         6.0943 
  61   0.0000       0.232658         6.3310 
  62   0.0000       0.249337         6.7848 
  63   0.0000       0.251725         6.8498 
  64   0.0000       0.273190         7.4339 
  65   0.0000       0.282737         7.6937 
  66   0.0000       0.295048         8.0287 
  67   0.0000       0.302242         8.2244 
  68   0.0000       0.311465         8.4754 
  69   0.0000       0.545493        14.8436 
  70   0.0000       0.548944        14.9375 
  71   0.0000       0.552907        15.0454 
  72   0.0000       0.564137        15.3509 
  73   0.0000       0.567268        15.4362 
  74   0.0000       0.576342        15.6831 
  75   0.0000       0.581012        15.8101 
  76   0.0000       0.590098        16.0574 
  77   0.0000       0.607383        16.5277 
  78   0.0000       0.614398        16.7186 
  79   0.0000       0.635139        17.2830 
  80   0.0000       0.646246        17.5853 
  81   0.0000       0.650403        17.6984 
  82   0.0000       0.653901        17.7936 
  83   0.0000       0.669205        18.2100 
  84   0.0000       0.698391        19.0042 
  85   0.0000       0.716350        19.4929 
  86   0.0000       0.781307        21.2604 
  87   0.0000       0.790759        21.5176 
  88   0.0000       0.809626        22.0310 
  89   0.0000       0.824511        22.4361 
  90   0.0000       0.841935        22.9102 
  91   0.0000       0.858903        23.3719 
  92   0.0000       0.872444        23.7404 
  93   0.0000       0.892338        24.2817 
  94   0.0000       0.896052        24.3828 
  95   0.0000       0.903279        24.5795 
  96   0.0000       0.919657        25.0251 
  97   0.0000       0.922443        25.1010 
  98   0.0000       0.933020        25.3888 
  99   0.0000       0.939143        25.5554 
 100   0.0000       0.942413        25.6443 
 101   0.0000       0.957466        26.0540 
 102   0.0000       0.962985        26.2042 
 103   0.0000       0.991701        26.9856 
 104   0.0000       0.993736        27.0409 
 105   0.0000       1.023355        27.8469 
 106   0.0000       1.044495        28.4222 
 107   0.0000       1.088216        29.6119 
 108   0.0000       1.141647        31.0658 
 109   0.0000       1.160262        31.5723 
 110   0.0000       1.180915        32.1343 
 111   0.0000       1.228225        33.4217 
 112   0.0000       1.260323        34.2951 
 113   0.0000       1.318418        35.8760 
 114   0.0000       1.357490        36.9392 
 115   0.0000       1.369619        37.2692 
 116   0.0000       1.400615        38.1127 
 117   0.0000       1.430054        38.9138 
 118   0.0000       1.483509        40.3683 
 119   0.0000       1.551864        42.2284 
 120   0.0000       1.598358        43.4935 
 121   0.0000       1.669677        45.4342 
 122   0.0000       1.724747        46.9328 
 123   0.0000       1.852918        50.4205 
 124   0.0000       1.941406        52.8283 
 125   0.0000       2.140731        58.2522 
 126   0.0000       2.214113        60.2491 

                    ********************************
                    * MULLIKEN POPULATION ANALYSIS *
                    ********************************

-----------------------
MULLIKEN ATOMIC CHARGES
-----------------------
   0 C :    0.258367
   1 C :   -0.262442
   2 C :   -0.301388
   3 C :    0.003095
   4 O :   -0.526375
   5 H :    0.203102
   6 H :    0.147783
   7 H :    0.155482
   8 H :    0.139157
   9 H :    0.160579
  10 H :    0.141178
  11 H :    0.139854
  12 C :    0.000522
  13 H :    0.129030
  14 C :    0.041178
  15 C :   -0.273883
  16 C :   -0.078843
  17 O :   -0.519044
  18 H :    0.160498
  19 O :   -0.511203
  20 H :    0.144616
  21 H :    0.201765
  22 H :    0.127700
  23 H :    0.138978
  24 H :    0.180295
Sum of atomic charges:    0.0000000

--------------------------------
MULLIKEN REDUCED ORBITAL CHARGES
--------------------------------
  0 C s       :     3.212114  s :     3.212114
      pz      :     0.796591  p :     2.529520
      px      :     0.675055
      py      :     1.057874
  1 C s       :     3.310133  s :     3.310133
      pz      :     0.975508  p :     2.952308
      px      :     1.033769
      py      :     0.943031
  2 C s       :     3.315265  s :     3.315265
      pz      :     0.912938  p :     2.986123
      px      :     1.083890
      py      :     0.989295
  3 C s       :     3.255974  s :     3.255974
      pz      :     0.939047  p :     2.740931
      px      :     1.052246
      py      :     0.749639
  4 O s       :     3.942180  s :     3.942180
      pz      :     1.329455  p :     4.584195
      px      :     1.746166
      py      :     1.508574
  5 H s       :     0.796898  s :     0.796898
  6 H s       :     0.852217  s :     0.852217
  7 H s       :     0.844518  s :     0.844518
  8 H s       :     0.860843  s :     0.860843
  9 H s       :     0.839421  s :     0.839421
 10 H s       :     0.858822  s :     0.858822
 11 H s       :     0.860146  s :     0.860146
 12 C s       :     3.263608  s :     3.263608
      pz      :     0.984803  p :     2.735871
      px      :     0.753492
      py      :     0.997576
 13 H s       :     0.870970  s :     0.870970
 14 C s       :     3.270453  s :     3.270453
      pz      :     0.948538  p :     2.688369
      px      :     0.990815
      py      :     0.749017
 15 C s       :     3.305637  s :     3.305637
      pz      :     1.021799  p :     2.968246
      px      :     0.972486
      py      :     0.973960
 16 C s       :     3.287483  s :     3.287483
      pz      :     0.697939  p :     2.791361
      px      :     1.002454
      py      :     1.090967
 17 O s       :     3.938599  s :     3.938599
      pz      :     1.467382  p :     4.580444
      px      :     1.357315
      py      :     1.755747
 18 H s       :     0.839502  s :     0.839502
 19 O s       :     3.931394  s :     3.931394
      pz      :     1.844381  p :     4.579809
      px      :     1.251244
      py      :     1.484183
 20 H s       :     0.855384  s :     0.855384
 21 H s       :     0.798235  s :     0.798235
 22 H s       :     0.872300  s :     0.872300
 23 H s       :     0.861022  s :     0.861022
 24 H s       :     0.819705  s :     0.819705


                     *******************************
                     * LOEWDIN POPULATION ANALYSIS *
                     *******************************

----------------------
LOEWDIN ATOMIC CHARGES
----------------------
   0 C :    0.153760
   1 C :   -0.209974
   2 C :   -0.216875
   3 C :   -0.030125
   4 O :   -0.332490
   5 H :    0.127591
   6 H :    0.116064
   7 H :    0.124265
   8 H :    0.111804
   9 H :    0.117774
  10 H :    0.101750
  11 H :    0.100919
  12 C :   -0.048497
  13 H :    0.094911
  14 C :    0.034934
  15 C :   -0.246035
  16 C :   -0.052860
  17 O :   -0.338657
  18 H :    0.116983
  19 O :   -0.309409
  20 H :    0.113207
  21 H :    0.146894
  22 H :    0.107172
  23 H :    0.101056
  24 H :    0.115837

-------------------------------
LOEWDIN REDUCED ORBITAL CHARGES
-------------------------------
  0 C s       :     2.957610  s :     2.957610
      pz      :     0.926072  p :     2.888630
      px      :     0.853156
      py      :     1.109402
  1 C s       :     2.972598  s :     2.972598
      pz      :     1.073852  p :     3.237377
      px      :     1.109054
      py      :     1.054471
  2 C s       :     2.972794  s :     2.972794
      pz      :     1.034967  p :     3.244080
      px      :     1.131492
      py      :     1.077621
  3 C s       :     2.982677  s :     2.982677
      pz      :     1.038426  p :     3.047448
      px      :     1.117687
      py      :     0.891335
  4 O s       :     3.606311  s :     3.606311
      pz      :     1.393522  p :     4.726179
      px      :     1.778954
      py      :     1.553703
  5 H s       :     0.872409  s :     0.872409
  6 H s       :     0.883936  s :     0.883936
  7 H s       :     0.875735  s :     0.875735
  8 H s       :     0.888196  s :     0.888196
  9 H s       :     0.882226  s :     0.882226
 10 H s       :     0.898250  s :     0.898250
 11 H s       :     0.899081  s :     0.899081
 12 C s       :     2.991934  s :     2.991934
      pz      :     1.089620  p :     3.056563
      px      :     0.894621
      py      :     1.072322
 13 H s       :     0.905089  s :     0.905089
 14 C s       :     2.950959  s :     2.950959
      pz      :     1.064795  p :     3.014107
      px      :     1.045549
      py      :     0.903763
 15 C s       :     2.982848  s :     2.982848
      pz      :     1.107799  p :     3.263187
      px      :     1.078753
      py      :     1.076635
 16 C s       :     2.988696  s :     2.988696
      pz      :     0.849545  p :     3.064165
      px      :     1.089180
      py      :     1.125439
 17 O s       :     3.604521  s :     3.604521
      pz      :     1.525471  p :     4.734136
      px      :     1.426041
      py      :     1.782624
 18 H s       :     0.883017  s :     0.883017
 19 O s       :     3.567881  s :     3.567881
      pz      :     1.861843  p :     4.741528
      px      :     1.332379
      py      :     1.547306
 20 H s       :     0.886793  s :     0.886793
 21 H s       :     0.853106  s :     0.853106
 22 H s       :     0.892828  s :     0.892828
 23 H s       :     0.898944  s :     0.898944
 24 H s       :     0.884163  s :     0.884163


                      *****************************
                      * MAYER POPULATION ANALYSIS *
                      *****************************

  NA   - Mulliken gross atomic population
  ZA   - Total nuclear charge
  QA   - Mulliken gross atomic charge
  VA   - Mayer's total valence
  BVA  - Mayer's bonded valence
  FA   - Mayer's free valence

  ATOM       NA         ZA         QA         VA         BVA        FA
  0 C      5.7416     6.0000     0.2584     3.5829     3.5829     0.0000
  1 C      6.2624     6.0000    -0.2624     3.7345     3.7345    -0.0000
  2 C      6.3014     6.0000    -0.3014     3.7661     3.7661     0.0000
  3 C      5.9969     6.0000     0.0031     3.6620     3.6620     0.0000
  4 O      8.5264     8.0000    -0.5264     1.7636     1.7636     0.0000
  5 H      0.7969     1.0000     0.2031     0.9199     0.9199     0.0000
  6 H      0.8522     1.0000     0.1478     0.9323     0.9323     0.0000
  7 H      0.8445     1.0000     0.1555     0.9403     0.9403    -0.0000
  8 H      0.8608     1.0000     0.1392     0.9368     0.9368    -0.0000
  9 H      0.8394     1.0000     0.1606     0.9327     0.9327     0.0000
 10 H      0.8588     1.0000     0.1412     0.9277     0.9277     0.0000
 11 H      0.8601     1.0000     0.1399     0.9293     0.9293     0.0000
 12 C      5.9995     6.0000     0.0005     3.6056     3.6056     0.0000
 13 H      0.8710     1.0000     0.1290     0.9281     0.9281     0.0000
 14 C      5.9588     6.0000     0.0412     3.6886     3.6886     0.0000
 15 C      6.2739     6.0000    -0.2739     3.6725     3.6725     0.0000
 16 C      6.0788     6.0000    -0.0788     3.6431     3.6431     0.0000
 17 O      8.5190     8.0000    -0.5190     1.7812     1.7812     0.0000
 18 H      0.8395     1.0000     0.1605     0.9348     0.9348    -0.0000
 19 O      8.5112     8.0000    -0.5112     1.7432     1.7432     0.0000
 20 H      0.8554     1.0000     0.1446     0.9395     0.9395    -0.0000
 21 H      0.7982     1.0000     0.2018     0.9445     0.9445     0.0000
 22 H      0.8723     1.0000     0.1277     0.9356     0.9356    -0.0000
 23 H      0.8610     1.0000     0.1390     0.9341     0.9341     0.0000
 24 H      0.8197     1.0000     0.1803     0.9248     0.9248     0.0000

  Mayer bond orders larger than 0.100000
B(  0-C ,  1-C ) :   0.9465 B(  0-C ,  4-O ) :   0.8468 B(  0-C ,  5-H ) :   0.8670 
B(  0-C , 19-O ) :   0.8626 B(  1-C ,  2-C ) :   0.9552 B(  1-C ,  6-H ) :   0.9406 
B(  1-C ,  7-H ) :   0.9369 B(  2-C ,  3-C ) :   0.9560 B(  2-C ,  8-H ) :   0.9460 
B(  2-C ,  9-H ) :   0.9449 B(  3-C ,  4-O ) :   0.8343 B(  3-C , 10-H ) :   0.9353 
B(  3-C , 11-H ) :   0.9409 B( 12-C , 13-H ) :   0.9158 B( 12-C , 14-C ) :   0.9148 
B( 12-C , 17-O ) :   0.8497 B( 12-C , 18-H ) :   0.9334 B( 14-C , 15-C ) :   0.9429 
B( 14-C , 19-O ) :   0.8570 B( 14-C , 20-H ) :   0.9352 B( 15-C , 16-C ) :   0.9323 
B( 15-C , 21-H ) :   0.9035 B( 15-C , 22-H ) :   0.9379 B( 16-C , 17-O ) :   0.8252 
B( 16-C , 23-H ) :   0.9405 B( 16-C , 24-H ) :   0.9113 

-------
TIMINGS
-------

Total SCF time: 0 days 0 hours 2 min 20 sec 

Total time                  ....     140.920 sec
Sum of individual times     ....     140.243 sec  ( 99.5%)

Fock matrix formation       ....     133.144 sec  ( 94.5%)
  XC integration            ....      10.668 sec  (  8.0% of F)
    Basis function eval.    ....       4.787 sec  ( 44.9% of XC)
    Density eval.           ....       1.917 sec  ( 18.0% of XC)
    XC-Functional eval.     ....       1.006 sec  (  9.4% of XC)
    XC-Potential eval.      ....       2.339 sec  ( 21.9% of XC)
Diagonalization             ....       0.049 sec  (  0.0%)
Density matrix formation    ....       0.007 sec  (  0.0%)
Population analysis         ....       0.052 sec  (  0.0%)
Initial guess               ....       1.484 sec  (  1.1%)
Orbital Transformation      ....       0.000 sec  (  0.0%)
Orbital Orthonormalization  ....       0.000 sec  (  0.0%)
DIIS solution               ....       0.042 sec  (  0.0%)
SOSCF solution              ....       0.137 sec  (  0.1%)
Grid generation             ....       5.328 sec  (  3.8%)

-------------------------   --------------------
FINAL SINGLE POINT ENERGY      -538.416448595735
-------------------------   --------------------

------------------------------------------------------------------------------
                         ORCA SCF GRADIENT CALCULATION
------------------------------------------------------------------------------

Gradient of the Kohn-Sham DFT energy:
Kohn-Sham wavefunction type      ... RKS
Hartree-Fock exchange scaling    ...    0.200
Number of operators              ...    1
Number of atoms                  ...   25
Basis set dimensions             ...  127
Integral neglect threshold       ... 2.5e-11
Integral primitive cutoff        ... 2.5e-12

Nuclear repulsion gradient       ... done
One Electron Gradient            ... done
Pre-screening matrix             ... done
Starting the two electron gradient:
Two electron gradient done
Exchange-correlation gradient    ... done

------------------
CARTESIAN GRADIENT
------------------

   1   C   :   -0.014842380   -0.006024821    0.009850891
   2   C   :    0.009984584   -0.003719018   -0.006373949
   3   C   :   -0.000594582   -0.001124048   -0.001862838
   4   C   :   -0.001468724   -0.004541693   -0.002860586
   5   O   :   -0.009363113   -0.016600030    0.003299211
   6   H   :   -0.001887620   -0.016248504   -0.000367423
   7   H   :    0.000968305    0.002996960   -0.000089246
   8   H   :    0.000723470    0.002529377   -0.001060291
   9   H   :   -0.000745045    0.000433509   -0.000270644
  10   H   :   -0.000593302    0.001445466    0.000816346
  11   H   :   -0.000347238    0.000597931    0.000890921
  12   H   :   -0.000468911    0.000487371    0.000138652
  13   C   :    0.003971243    0.002126435    0.002097376
  14   H   :   -0.000583335   -0.000431367   -0.000685690
  15   C   :    0.002434890    0.017486121   -0.000052685
  16   C   :    0.005426239    0.012483989   -0.005043940
  17   C   :    0.000793127    0.018130888   -0.006580474
  18   O   :    0.001439207    0.005555609    0.002609678
  19   H   :    0.000273053   -0.001930765   -0.001832620
  20   O   :   -0.001401952   -0.022136351   -0.001002858
  21   H   :   -0.003614419   -0.003955965    0.001471405
  22   H   :    0.003687286    0.001953707    0.006176088
  23   H   :    0.002420611    0.000702365    0.003284666
  24   H   :    0.001591562    0.000330765    0.000975272
  25   H   :    0.002197045    0.009452069   -0.003527261

Difference to translation invariance:
           :    0.0000000000   -0.0000000000   -0.0000000000

Norm of the cartesian gradient     ...    0.0537007291
RMS gradient                       ...    0.0062008261
MAX gradient                       ...    0.0221363510

-------
TIMINGS
-------

Total SCF gradient time            ...       46.520 sec

One electron gradient       ....       0.455 sec  (  1.0%)
Prescreening matrices       ....       0.093 sec  (  0.2%)
Two electron gradient       ....      28.565 sec  ( 61.4%)
XC gradient                 ....      17.097 sec  ( 36.8%)
------------------------------------------------------------------------------
                         ORCA GEOMETRY RELAXATION STEP
------------------------------------------------------------------------------

Reading the OPT-File                    .... done
Getting information on internals        .... done
Copying old internal coords+grads       .... done
Making the new internal coordinates     .... (new redundants).... done
Validating the new internal coordinates .... (new redundants).... done
Calculating the B-matrix                .... done
Calculating the G,G- and P matrices     .... done
Transforming gradient to internals      .... done
Projecting the internal gradient        .... done
Number of atoms                         ....  25
Number of internal coordinates          .... 149
Current Energy                          ....  -538.416448596 Eh
Current gradient norm                   ....     0.053700729 Eh/bohr
Maximum allowed component of the step   ....  0.300
Current trust radius                    ....  0.300
Evaluating the initial hessian          ....  (Almloef) done
Projecting the Hessian                  .... done
Forming the augmented Hessian           .... done
Diagonalizing the augmented Hessian     .... done
Last element of RFO vector              ....  0.863133752
Lowest eigenvalues of augmented Hessian:
 -0.110998972  0.033125909  0.034864071  0.041158705  0.044979618
Length of the computed step             ....  0.585048806
Warning: the length of the step is outside the trust region - taking restricted step instead
The input lambda is                     ....    -0.110999
   iter:   1  x=   -0.207050  g=    2.626543 f(x)=     0.252282
   iter:   2  x=   -0.313382  g=    0.946975 f(x)=     0.100694
   iter:   3  x=   -0.383083  g=    0.448341 f(x)=     0.031250
   iter:   4  x=   -0.400880  g=    0.305369 f(x)=     0.005435
   iter:   5  x=   -0.401725  g=    0.279380 f(x)=     0.000236
   iter:   6  x=   -0.401727  g=    0.278225 f(x)=     0.000000
   iter:   7  x=   -0.401727  g=    0.278223 f(x)=     0.000000
   iter:   8  x=   -0.401727  g=    0.278223 f(x)=     0.000000
The output lambda is                    ....    -0.401727 (8 iterations)
The final length of the internal step   ....  0.300000000
Converting the step to cartesian space:
 Initial RMS(Int)=    0.0245769576
Transforming coordinates:
 Iter   0:  RMS(Cart)=    0.3063107407 RMS(Int)=    0.0260027734
 Iter   1:  RMS(Cart)=    0.0216446144 RMS(Int)=    0.0092060600
 Iter   2:  RMS(Cart)=    0.0047739857 RMS(Int)=    0.0011794722
 Iter   3:  RMS(Cart)=    0.0005505158 RMS(Int)=    0.0002234041
 Iter   4:  RMS(Cart)=    0.0001216682 RMS(Int)=    0.0000366485
 Iter   5:  RMS(Cart)=    0.0000157088 RMS(Int)=    0.0000061324
 Iter   6:  RMS(Cart)=    0.0000033350 RMS(Int)=    0.0000011060
 Iter   7:  RMS(Cart)=    0.0000004567 RMS(Int)=    0.0000001695
 Iter   8:  RMS(Cart)=    0.0000000929 RMS(Int)=    0.0000000357
Imposing constraints:
 Iter   0:  RMS(Cart)=    0.0001756057 RMS(Int)=    0.0000808422
 Iter   1:  RMS(Cart)=    0.0000975290 RMS(Int)=    0.0000560742
 Iter   2:  RMS(Cart)=    0.0000554382 RMS(Int)=    0.0000457597
 Iter   3:  RMS(Cart)=    0.0000327611 RMS(Int)=    0.0000415164
 Iter   4:  RMS(Cart)=    0.0000205993 RMS(Int)=    0.0000394357
 Iter   5:  RMS(Cart)=    0.0000141361 RMS(Int)=    0.0000380743
 Iter   6:  RMS(Cart)=    0.0000107259 RMS(Int)=    0.0000369604
 Iter   7:  RMS(Cart)=    0.0000089074 RMS(Int)=    0.0000359452
 Iter   8:  RMS(Cart)=    0.0000078963 RMS(Int)=    0.0000349812
 Iter   9:  RMS(Cart)=    0.0000072918 RMS(Int)=    0.0000340528
 Iter  10:  RMS(Cart)=    0.0000068952 RMS(Int)=    0.0000331539
 Iter  11:  RMS(Cart)=    0.0000066082 RMS(Int)=    0.0000322820
 Iter  12:  RMS(Cart)=    0.0000063809 RMS(Int)=    0.0000314355
 Iter  13:  RMS(Cart)=    0.0000061874 RMS(Int)=    0.0000306135
 Iter  14:  RMS(Cart)=    0.0000060140 RMS(Int)=    0.0000298151
 Iter  15:  RMS(Cart)=    0.0000058533 RMS(Int)=    0.0000290395
 Iter  16:  RMS(Cart)=    0.0000057012 RMS(Int)=    0.0000282858
 Iter  17:  RMS(Cart)=    0.0000055553 RMS(Int)=    0.0000275535
 Iter  18:  RMS(Cart)=    0.0000054145 RMS(Int)=    0.0000268419
 Iter  19:  RMS(Cart)=    0.0000052780 RMS(Int)=    0.0000261502
 Iter  20:  RMS(Cart)=    0.0000051453 RMS(Int)=    0.0000254780
 Iter  21:  RMS(Cart)=    0.0000050162 RMS(Int)=    0.0000248245
 Iter  22:  RMS(Cart)=    0.0000048905 RMS(Int)=    0.0000241893
 Iter  23:  RMS(Cart)=    0.0000047679 RMS(Int)=    0.0000235717
 Iter  24:  RMS(Cart)=    0.0000046485 RMS(Int)=    0.0000229712
 Iter  25:  RMS(Cart)=    0.0000045320 RMS(Int)=    0.0000223874
 Iter  26:  RMS(Cart)=    0.0000044185 RMS(Int)=    0.0000218196
 Iter  27:  RMS(Cart)=    0.0000043079 RMS(Int)=    0.0000212674
 Iter  28:  RMS(Cart)=    0.0000042000 RMS(Int)=    0.0000207304
 Iter  29:  RMS(Cart)=    0.0000040948 RMS(Int)=    0.0000202081
 Iter  30:  RMS(Cart)=    0.0000039922 RMS(Int)=    0.0000197000
 Iter  31:  RMS(Cart)=    0.0000038922 RMS(Int)=    0.0000192058
 Iter  32:  RMS(Cart)=    0.0000037947 RMS(Int)=    0.0000187250
 Iter  33:  RMS(Cart)=    0.0000036996 RMS(Int)=    0.0000182572
 Iter  34:  RMS(Cart)=    0.0000036069 RMS(Int)=    0.0000178021
 Iter  35:  RMS(Cart)=    0.0000035166 RMS(Int)=    0.0000173593
 Iter  36:  RMS(Cart)=    0.0000034284 RMS(Int)=    0.0000169284
 Iter  37:  RMS(Cart)=    0.0000033425 RMS(Int)=    0.0000165091
 Iter  38:  RMS(Cart)=    0.0000032588 RMS(Int)=    0.0000161010
 Iter  39:  RMS(Cart)=    0.0000031771 RMS(Int)=    0.0000157039
 Iter  40:  RMS(Cart)=    0.0000030974 RMS(Int)=    0.0000153174
 Iter  41:  RMS(Cart)=    0.0000030198 RMS(Int)=    0.0000149413
 Iter  42:  RMS(Cart)=    0.0000029441 RMS(Int)=    0.0000145751
 Iter  43:  RMS(Cart)=    0.0000028703 RMS(Int)=    0.0000142187
 Iter  44:  RMS(Cart)=    0.0000027983 RMS(Int)=    0.0000138718
 Iter  45:  RMS(Cart)=    0.0000027281 RMS(Int)=    0.0000135341
 Iter  46:  RMS(Cart)=    0.0000026597 RMS(Int)=    0.0000132053
 Iter  47:  RMS(Cart)=    0.0000025930 RMS(Int)=    0.0000128852
 Iter  48:  RMS(Cart)=    0.0000025280 RMS(Int)=    0.0000125736
 Iter  49:  RMS(Cart)=    0.0000024646 RMS(Int)=    0.0000122702
 Iter  50:  RMS(Cart)=    0.0000024028 RMS(Int)=    0.0000119747
 Iter  51:  RMS(Cart)=    0.0000023425 RMS(Int)=    0.0000116871
 Iter  52:  RMS(Cart)=    0.0000022837 RMS(Int)=    0.0000114070
 Iter  53:  RMS(Cart)=    0.0000022264 RMS(Int)=    0.0000111342
 Iter  54:  RMS(Cart)=    0.0000021706 RMS(Int)=    0.0000108686
 Iter  55:  RMS(Cart)=    0.0000021161 RMS(Int)=    0.0000106100
 Iter  56:  RMS(Cart)=    0.0000020630 RMS(Int)=    0.0000103581
 Iter  57:  RMS(Cart)=    0.0000020113 RMS(Int)=    0.0000101128
 Iter  58:  RMS(Cart)=    0.0000019608 RMS(Int)=    0.0000098739
 Iter  59:  RMS(Cart)=    0.0000019116 RMS(Int)=    0.0000096412
 Iter  60:  RMS(Cart)=    0.0000018637 RMS(Int)=    0.0000094145
 Iter  61:  RMS(Cart)=    0.0000018169 RMS(Int)=    0.0000091938
 Iter  62:  RMS(Cart)=    0.0000017713 RMS(Int)=    0.0000089788
 Iter  63:  RMS(Cart)=    0.0000017269 RMS(Int)=    0.0000087693
 Iter  64:  RMS(Cart)=    0.0000016835 RMS(Int)=    0.0000085653
 Iter  65:  RMS(Cart)=    0.0000016413 RMS(Int)=    0.0000083666
 Iter  66:  RMS(Cart)=    0.0000016001 RMS(Int)=    0.0000081730
 Iter  67:  RMS(Cart)=    0.0000015600 RMS(Int)=    0.0000079844
 Iter  68:  RMS(Cart)=    0.0000015209 RMS(Int)=    0.0000078007
 Iter  69:  RMS(Cart)=    0.0000014827 RMS(Int)=    0.0000076217
 Iter  70:  RMS(Cart)=    0.0000014455 RMS(Int)=    0.0000074473
 Iter  71:  RMS(Cart)=    0.0000014093 RMS(Int)=    0.0000072775
 Iter  72:  RMS(Cart)=    0.0000013739 RMS(Int)=    0.0000071119
 Iter  73:  RMS(Cart)=    0.0000013395 RMS(Int)=    0.0000069507
 Iter  74:  RMS(Cart)=    0.0000013059 RMS(Int)=    0.0000067935
 Iter  75:  RMS(Cart)=    0.0000012732 RMS(Int)=    0.0000066404
[...]
E(X)               :      -56.488585354967 Eh       
E(C)               :       -3.425562944546 Eh       
E(XC)              :      -59.914148299513 Eh       
DFET-embed. en.    :        0.000000000000 Eh       

---------------
SCF CONVERGENCE
---------------

  Last Energy change         ...   -7.0766e-09  Tolerance :   1.0000e-08
  Last MAX-Density change    ...    1.8044e-05  Tolerance :   1.0000e-07
  Last RMS-Density change    ...    5.4636e-07  Tolerance :   5.0000e-09
  Last Orbital Gradient      ...    2.3059e-06  Tolerance :   1.0000e-05
  Last Orbital Rotation      ...    2.9230e-06  Tolerance :   1.0000e-05

             **** THE GBW FILE WAS UPDATED (ensemble_285_285.gbw) ****
             **** DENSITY FILE WAS UPDATED (ensemble_285_285.scfp) ****
             **** ENERGY FILE WAS UPDATED (ensemble_285_285.en.tmp) ****
             **** THE GBW FILE WAS UPDATED (ensemble_285_285.gbw) ****
             **** DENSITY FILE WAS UPDATED (ensemble_285_285.scfp) ****
----------------
ORBITAL ENERGIES
----------------

  NO   OCC          E(Eh)            E(eV) 
   0   2.0000     -19.140331      -520.8349 
   1   2.0000     -19.139604      -520.8151 
   2   2.0000     -19.131591      -520.5971 
   3   2.0000     -10.272034      -279.5163 
   4   2.0000     -10.237487      -278.5762 
   5   2.0000     -10.224214      -278.2150 
   6   2.0000     -10.220042      -278.1015 
   7   2.0000     -10.217198      -278.0241 
   8   2.0000     -10.182568      -277.0818 
   9   2.0000     -10.181391      -277.0497 
  10   2.0000     -10.179839      -277.0075 
  11   2.0000      -1.050284       -28.5797 
  12   2.0000      -1.011624       -27.5277 
  13   2.0000      -0.987436       -26.8695 
  14   2.0000      -0.790059       -21.4986 
  15   2.0000      -0.771701       -20.9990 
  16   2.0000      -0.740323       -20.1452 
  17   2.0000      -0.717283       -19.5183 
  18   2.0000      -0.614074       -16.7098 
  19   2.0000      -0.596559       -16.2332 
  20   2.0000      -0.594662       -16.1816 
  21   2.0000      -0.564443       -15.3593 
  22   2.0000      -0.519343       -14.1320 
  23   2.0000      -0.498042       -13.5524 
  24   2.0000      -0.479150       -13.0383 
  25   2.0000      -0.475418       -12.9368 
  26   2.0000      -0.447782       -12.1848 
  27   2.0000      -0.446813       -12.1584 
  28   2.0000      -0.414873       -11.2893 
  29   2.0000      -0.412165       -11.2156 
  30   2.0000      -0.402438       -10.9509 
  31   2.0000      -0.391685       -10.6583 
  32   2.0000      -0.369323       -10.0498 
  33   2.0000      -0.365574        -9.9478 
  34   2.0000      -0.354870        -9.6565 
  35   2.0000      -0.352298        -9.5865 
  36   2.0000      -0.339911        -9.2494 
  37   2.0000      -0.322225        -8.7682 
  38   2.0000      -0.308364        -8.3910 
  39   2.0000      -0.291109        -7.9215 
  40   2.0000      -0.268728        -7.3125 
  41   2.0000      -0.251404        -6.8410 
  42   2.0000      -0.233122        -6.3436 
  43   0.0000       0.079934         2.1751 
  44   0.0000       0.099845         2.7169 
  45   0.0000       0.105756         2.8778 
  46   0.0000       0.112543         3.0625 
  47   0.0000       0.117817         3.2060 
  48   0.0000       0.126472         3.4415 
  49   0.0000       0.143877         3.9151 
  50   0.0000       0.147070         4.0020 
  51   0.0000       0.154620         4.2074 
  52   0.0000       0.156496         4.2585 
  53   0.0000       0.163494         4.4489 
  54   0.0000       0.170654         4.6437 
  55   0.0000       0.172876         4.7042 
  56   0.0000       0.178949         4.8695 
  57   0.0000       0.182787         4.9739 
  58   0.0000       0.196873         5.3572 
  59   0.0000       0.203252         5.5308 
  60   0.0000       0.223428         6.0798 
  61   0.0000       0.232202         6.3185 
  62   0.0000       0.237557         6.4643 
  63   0.0000       0.245950         6.6927 
  64   0.0000       0.263684         7.1752 
  65   0.0000       0.271827         7.3968 
  66   0.0000       0.284203         7.7336 
  67   0.0000       0.300256         8.1704 
  68   0.0000       0.310557         8.4507 
  69   0.0000       0.530968        14.4484 
  70   0.0000       0.546130        14.8609 
  71   0.0000       0.554412        15.0863 
  72   0.0000       0.557408        15.1678 
  73   0.0000       0.562282        15.3005 
  74   0.0000       0.566769        15.4226 
  75   0.0000       0.577867        15.7246 
  76   0.0000       0.587585        15.9890 
  77   0.0000       0.590788        16.0762 
  78   0.0000       0.604122        16.4390 
  79   0.0000       0.621834        16.9210 
  80   0.0000       0.634449        17.2642 
  81   0.0000       0.641914        17.4674 
  82   0.0000       0.648081        17.6352 
  83   0.0000       0.666049        18.1241 
  84   0.0000       0.683946        18.6111 
  85   0.0000       0.721674        19.6377 
  86   0.0000       0.769736        20.9456 
  87   0.0000       0.789340        21.4790 
  88   0.0000       0.804459        21.8904 
  89   0.0000       0.826617        22.4934 
  90   0.0000       0.838048        22.8045 
  91   0.0000       0.845201        22.9991 
  92   0.0000       0.866700        23.5841 
  93   0.0000       0.869087        23.6491 
  94   0.0000       0.888882        24.1877 
  95   0.0000       0.899507        24.4768 
  96   0.0000       0.906581        24.6693 
  97   0.0000       0.912480        24.8298 
  98   0.0000       0.921712        25.0811 
  99   0.0000       0.934517        25.4295 
 100   0.0000       0.937166        25.5016 
 101   0.0000       0.954074        25.9617 
 102   0.0000       0.964370        26.2419 
 103   0.0000       0.978533        26.6272 
 104   0.0000       0.987071        26.8596 
 105   0.0000       0.993811        27.0430 
 106   0.0000       1.023327        27.8462 
 107   0.0000       1.077749        29.3270 
 108   0.0000       1.131483        30.7892 
 109   0.0000       1.157151        31.4877 
 110   0.0000       1.174149        31.9502 
 111   0.0000       1.222170        33.2569 
 112   0.0000       1.250867        34.0378 
 113   0.0000       1.269200        34.5367 
 114   0.0000       1.315057        35.7845 
 115   0.0000       1.337792        36.4032 
 116   0.0000       1.394619        37.9495 
 117   0.0000       1.407248        38.2932 
 118   0.0000       1.473484        40.0955 
 119   0.0000       1.498174        40.7674 
 120   0.0000       1.523033        41.4438 
 121   0.0000       1.659720        45.1633 
 122   0.0000       1.709551        46.5193 
 123   0.0000       1.780073        48.4382 
 124   0.0000       1.941049        52.8186 
 125   0.0000       2.088068        56.8192 
 126   0.0000       2.179504        59.3073 

                    ********************************
                    * MULLIKEN POPULATION ANALYSIS *
                    ********************************

-----------------------
MULLIKEN ATOMIC CHARGES
-----------------------
   0 C :    0.276894
   1 C :   -0.258569
   2 C :   -0.296806
   3 C :   -0.004519
   4 O :   -0.520297
   5 H :    0.175443
   6 H :    0.145402
   7 H :    0.156336
   8 H :    0.138948
   9 H :    0.161389
  10 H :    0.143414
  11 H :    0.143034
  12 C :   -0.011573
  13 H :    0.126674
  14 C :    0.075369
  15 C :   -0.296718
  16 C :   -0.037892
  17 O :   -0.525890
  18 H :    0.159983
  19 O :   -0.525691
  20 H :    0.144275
  21 H :    0.180018
  22 H :    0.139413
  23 H :    0.141054
  24 H :    0.170310
Sum of atomic charges:   -0.0000000

--------------------------------
MULLIKEN REDUCED ORBITAL CHARGES
--------------------------------
  0 C s       :     3.202953  s :     3.202953
      pz      :     0.827817  p :     2.520153
      px      :     0.674561
      py      :     1.017775
  1 C s       :     3.305392  s :     3.305392
      pz      :     0.972013  p :     2.953177
      px      :     1.056182
      py      :     0.924981
  2 C s       :     3.313637  s :     3.313637
      pz      :     0.916285  p :     2.983170
      px      :     1.077677
      py      :     0.989208
  3 C s       :     3.260814  s :     3.260814
      pz      :     0.924482  p :     2.743705
      px      :     1.066583
      py      :     0.752641
  4 O s       :     3.939710  s :     3.939710
      pz      :     1.321156  p :     4.580587
      px      :     1.731968
      py      :     1.527464
  5 H s       :     0.824557  s :     0.824557
  6 H s       :     0.854598  s :     0.854598
  7 H s       :     0.843664  s :     0.843664
  8 H s       :     0.861052  s :     0.861052
  9 H s       :     0.838611  s :     0.838611
 10 H s       :     0.856586  s :     0.856586
 11 H s       :     0.856966  s :     0.856966
 12 C s       :     3.270131  s :     3.270131
      pz      :     0.989125  p :     2.741442
      px      :     0.811305
      py      :     0.941012
 13 H s       :     0.873326  s :     0.873326
 14 C s       :     3.254856  s :     3.254856
      pz      :     0.945715  p :     2.669775
      px      :     0.952598
      py      :     0.771462
 15 C s       :     3.311871  s :     3.311871
      pz      :     1.025768  p :     2.984847
      px      :     1.004628
      py      :     0.954451
 16 C s       :     3.273135  s :     3.273135
      pz      :     0.694631  p :     2.764757
      px      :     1.033568
      py      :     1.036558
 17 O s       :     3.942478  s :     3.942478
      pz      :     1.453116  p :     4.583412
      px      :     1.457319
      py      :     1.672977
 18 H s       :     0.840017  s :     0.840017
 19 O s       :     3.923153  s :     3.923153
      pz      :     1.843070  p :     4.602538
      px      :     1.265009
      py      :     1.494459
 20 H s       :     0.855725  s :     0.855725
 21 H s       :     0.819982  s :     0.819982
 22 H s       :     0.860587  s :     0.860587
 23 H s       :     0.858946  s :     0.858946
 24 H s       :     0.829690  s :     0.829690


                     *******************************
                     * LOEWDIN POPULATION ANALYSIS *
                     *******************************

----------------------
LOEWDIN ATOMIC CHARGES
----------------------
   0 C :    0.167398
   1 C :   -0.213076
   2 C :   -0.215539
   3 C :   -0.029172
   4 O :   -0.332426
   5 H :    0.111458
   6 H :    0.113976
   7 H :    0.124014
   8 H :    0.112493
   9 H :    0.118856
  10 H :    0.103033
  11 H :    0.102604
  12 C :   -0.048954
  13 H :    0.094058
  14 C :    0.040540
  15 C :   -0.237982
  16 C :   -0.040955
  17 O :   -0.340205
  18 H :    0.116829
  19 O :   -0.322975
  20 H :    0.111758
  21 H :    0.136360
  22 H :    0.113750
  23 H :    0.101339
  24 H :    0.112819

-------------------------------
LOEWDIN REDUCED ORBITAL CHARGES
-------------------------------
  0 C s       :     2.954843  s :     2.954843
      pz      :     0.939287  p :     2.877759
      px      :     0.841803
      py      :     1.096669
  1 C s       :     2.975407  s :     2.975407
      pz      :     1.072103  p :     3.237669
      px      :     1.118609
      py      :     1.046957
  2 C s       :     2.971127  s :     2.971127
      pz      :     1.036559  p :     3.244412
      px      :     1.130072
      py      :     1.077782
  3 C s       :     2.984437  s :     2.984437
      pz      :     1.024209  p :     3.044735
      px      :     1.129386
      py      :     0.891141
  4 O s       :     3.601945  s :     3.601945
      pz      :     1.386338  p :     4.730482
      px      :     1.769352
      py      :     1.574791
  5 H s       :     0.888542  s :     0.888542
  6 H s       :     0.886024  s :     0.886024
  7 H s       :     0.875986  s :     0.875986
  8 H s       :     0.887507  s :     0.887507
  9 H s       :     0.881144  s :     0.881144
 10 H s       :     0.896967  s :     0.896967
 11 H s       :     0.897396  s :     0.897396
 12 C s       :     2.991315  s :     2.991315
      pz      :     1.090885  p :     3.057639
      px      :     0.939111
      py      :     1.027642
 13 H s       :     0.905942  s :     0.905942
 14 C s       :     2.953019  s :     2.953019
      pz      :     1.065577  p :     3.006441
      px      :     1.015433
      py      :     0.925432
 15 C s       :     2.978592  s :     2.978592
      pz      :     1.100896  p :     3.259390
      px      :     1.095173
      py      :     1.063320
 16 C s       :     2.986868  s :     2.986868
      pz      :     0.842207  p :     3.054087
      px      :     1.108539
      py      :     1.103341
 17 O s       :     3.609706  s :     3.609706
      pz      :     1.505945  p :     4.730499
      px      :     1.519172
      py      :     1.705382
 18 H s       :     0.883171  s :     0.883171
 19 O s       :     3.578676  s :     3.578676
      pz      :     1.862012  p :     4.744299
      px      :     1.344637
      py      :     1.537650
 20 H s       :     0.888242  s :     0.888242
 21 H s       :     0.863640  s :     0.863640
 22 H s       :     0.886250  s :     0.886250
 23 H s       :     0.898661  s :     0.898661
 24 H s       :     0.887181  s :     0.887181


                      *****************************
                      * MAYER POPULATION ANALYSIS *
                      *****************************

  NA   - Mulliken gross atomic population
  ZA   - Total nuclear charge
  QA   - Mulliken gross atomic charge
  VA   - Mayer's total valence
  BVA  - Mayer's bonded valence
  FA   - Mayer's free valence

  ATOM       NA         ZA         QA         VA         BVA        FA
  0 C      5.7231     6.0000     0.2769     3.6239     3.6239    -0.0000
  1 C      6.2586     6.0000    -0.2586     3.7333     3.7333     0.0000
  2 C      6.2968     6.0000    -0.2968     3.7684     3.7684    -0.0000
  3 C      6.0045     6.0000    -0.0045     3.6632     3.6632    -0.0000
  4 O      8.5203     8.0000    -0.5203     1.7723     1.7723     0.0000
  5 H      0.8246     1.0000     0.1754     0.9340     0.9340    -0.0000
  6 H      0.8546     1.0000     0.1454     0.9330     0.9330    -0.0000
  7 H      0.8437     1.0000     0.1563     0.9416     0.9416     0.0000
  8 H      0.8611     1.0000     0.1389     0.9370     0.9370     0.0000
  9 H      0.8386     1.0000     0.1614     0.9345     0.9345    -0.0000
 10 H      0.8566     1.0000     0.1434     0.9272     0.9272     0.0000
 11 H      0.8570     1.0000     0.1430     0.9289     0.9289    -0.0000
 12 C      6.0116     6.0000    -0.0116     3.6158     3.6158     0.0000
 13 H      0.8733     1.0000     0.1267     0.9276     0.9276     0.0000
 14 C      5.9246     6.0000     0.0754     3.6855     3.6855     0.0000
 15 C      6.2967     6.0000    -0.2967     3.7073     3.7073    -0.0000
 16 C      6.0379     6.0000    -0.0379     3.6508     3.6508    -0.0000
 17 O      8.5259     8.0000    -0.5259     1.7764     1.7764    -0.0000
 18 H      0.8400     1.0000     0.1600     0.9353     0.9353     0.0000
 19 O      8.5257     8.0000    -0.5257     1.7545     1.7545     0.0000
 20 H      0.8557     1.0000     0.1443     0.9370     0.9370     0.0000
 21 H      0.8200     1.0000     0.1800     0.9461     0.9461    -0.0000
 22 H      0.8606     1.0000     0.1394     0.9329     0.9329     0.0000
 23 H      0.8589     1.0000     0.1411     0.9286     0.9286     0.0000
 24 H      0.8297     1.0000     0.1703     0.9278     0.9278     0.0000

  Mayer bond orders larger than 0.100000
B(  0-C ,  1-C ) :   0.9472 B(  0-C ,  4-O ) :   0.8797 B(  0-C ,  5-H ) :   0.9025 
B(  0-C , 19-O ) :   0.8529 B(  1-C ,  2-C ) :   0.9558 B(  1-C ,  6-H ) :   0.9414 
B(  1-C ,  7-H ) :   0.9372 B(  2-C ,  3-C ) :   0.9560 B(  2-C ,  8-H ) :   0.9456 
B(  2-C ,  9-H ) :   0.9442 B(  3-C ,  4-O ) :   0.8353 B(  3-C , 10-H ) :   0.9360 
B(  3-C , 11-H ) :   0.9404 B( 12-C , 13-H ) :   0.9145 B( 12-C , 14-C ) :   0.9144 
B( 12-C , 17-O ) :   0.8617 B( 12-C , 18-H ) :   0.9334 B( 14-C , 15-C ) :   0.9379 
B( 14-C , 19-O ) :   0.8707 B( 14-C , 20-H ) :   0.9379 B( 15-C , 16-C ) :   0.9464 
B( 15-C , 21-H ) :   0.9230 B( 15-C , 22-H ) :   0.9358 B( 16-C , 17-O ) :   0.8413 
B( 16-C , 23-H ) :   0.9361 B( 16-C , 24-H ) :   0.9257 

-------
TIMINGS
-------

Total SCF time: 0 days 0 hours 0 min 56 sec 

Total time                  ....      56.446 sec
Sum of individual times     ....      55.805 sec  ( 98.9%)

Fock matrix formation       ....      50.433 sec  ( 89.3%)
  XC integration            ....       5.540 sec  ( 11.0% of F)
    Basis function eval.    ....       2.558 sec  ( 46.2% of XC)
    Density eval.           ....       0.993 sec  ( 17.9% of XC)
    XC-Functional eval.     ....       0.520 sec  (  9.4% of XC)
    XC-Potential eval.      ....       1.148 sec  ( 20.7% of XC)
Diagonalization             ....       0.007 sec  (  0.0%)
Density matrix formation    ....       0.003 sec  (  0.0%)
Population analysis         ....       0.035 sec  (  0.1%)
Initial guess               ....       0.008 sec  (  0.0%)
Orbital Transformation      ....       0.000 sec  (  0.0%)
Orbital Orthonormalization  ....       0.003 sec  (  0.0%)
DIIS solution               ....       0.001 sec  (  0.0%)
SOSCF solution              ....       0.027 sec  (  0.0%)
Grid generation             ....       5.291 sec  (  9.4%)

-------------------------   --------------------
FINAL SINGLE POINT ENERGY      -538.438121445374
-------------------------   --------------------

                                *** OPTIMIZATION RUN DONE ***

                            ***************************************
                            *     ORCA property calculations      *
                            ***************************************

                                    ---------------------
                                    Active property flags
                                    ---------------------
   (+) Dipole Moment


------------------------------------------------------------------------------
                       ORCA ELECTRIC PROPERTIES CALCULATION
------------------------------------------------------------------------------

Dipole Moment Calculation                       ... on
Quadrupole Moment Calculation                   ... off
Polarizability Calculation                      ... off
GBWName                                         ... ensemble_285_285.gbw
Electron density file                           ... ensemble_285_285.scfp
The origin for moment calculation is the CENTER OF MASS  = (-40.630402, 48.455861 87.833721)

-------------
DIPOLE MOMENT
-------------
                                X             Y             Z
Electronic contribution:     -0.61673      -1.69153      -1.89289
Nuclear contribution   :      0.39884       2.18719       2.48690
                        -----------------------------------------
Total Dipole Moment    :     -0.21789       0.49566       0.59401
                        -----------------------------------------
Magnitude (a.u.)       :      0.80374
Magnitude (Debye)      :      2.04294



--------------------
Rotational spectrum 
--------------------
 
Rotational constants in cm-1:     0.076792     0.024541     0.022770 
Rotational constants in MHz :  2302.176377   735.720109   682.629403 

 Dipole components along the rotational axes: 
x,y,z [a.u.] :    -0.494880    -0.044482    -0.631752 
x,y,z [Debye]:    -1.257885    -0.113065    -1.605787 

 

Timings for individual modules:

Sum of individual times         ...      950.291 sec (=  15.838 min)
GTO integral calculation        ...        4.651 sec (=   0.078 min)   0.5 %
SCF iterations                  ...      676.639 sec (=  11.277 min)  71.2 %
SCF Gradient evaluation         ...      266.904 sec (=   4.448 min)  28.1 %
Geometry relaxation             ...        2.097 sec (=   0.035 min)   0.2 %
                             ****ORCA TERMINATED NORMALLY****
TOTAL RUN TIME: 0 days 0 hours 15 minutes 52 seconds 517 msec
