
                                 *****************
                                 * O   R   C   A *
                                 *****************

           --- An Ab Initio, DFT and Semiempirical electronic structure package ---

                  #######################################################
                  #                        -***-                        #
                  #          Department of theory and spectroscopy      #
                  #               Directorship: Frank Neese             #
                  #        Max Planck Institute fuer Kohlenforschung    #
                  #                Kaiser Wilhelm Platz 1               #
                  #                 D-45470 Muelheim/Ruhr               #
                  #                      Germany                        #
                  #                                                     #
                  #                  All rights reserved                #
                  #                        -***-                        #
                  #######################################################


                         Program Version 4.2.0 -  RELEASE  -


 With contributions from (in alphabetic order):
   Daniel Aravena         : Magnetic Suceptibility
   Michael Atanasov       : Ab Initio Ligand Field Theory (pilot matlab implementation)
   Alexander A. Auer      : GIAO ZORA, VPT2
   Ute Becker             : Parallelization
   Giovanni Bistoni       : ED, misc. LED, open-shell LED, HFLED
   Martin Brehm           : Molecular dynamics
   Dmytro Bykov           : SCF Hessian
   Vijay G. Chilkuri      : MRCI spin determinant printing, contributions to CSF-ICE
   Dipayan Datta          : RHF DLPNO-CCSD density
   Achintya Kumar Dutta   : EOM-CC, STEOM-CC
   Dmitry Ganyushin       : Spin-Orbit,Spin-Spin,Magnetic field MRCI
   Miquel Garcia          : C-PCM Hessian, Gaussian charge scheme
   Yang Guo               : DLPNO-NEVPT2, CIM, IAO-localization
   Andreas Hansen         : Spin unrestricted coupled pair/coupled cluster methods
   Benjamin Helmich-Paris : CASSCF linear response (MC-RPA)
   Lee Huntington         : MR-EOM, pCC
   Robert Izsak           : Overlap fitted RIJCOSX, COSX-SCS-MP3, EOM
   Christian Kollmar      : KDIIS, OOCD, Brueckner-CCSD(T), CCSD density
   Simone Kossmann        : Meta GGA functionals, TD-DFT gradient, OOMP2, MP2 Hessian
   Martin Krupicka        : AUTO-CI
   Lucas Lang             : DCDCAS
   Dagmar Lenk            : GEPOL surface, SMD
   Dimitrios Liakos       : Extrapolation schemes; Compound Job, initial MDCI parallelization
   Dimitrios Manganas     : Further ROCIS development; embedding schemes
   Dimitrios Pantazis     : SARC Basis sets
   Taras Petrenko         : DFT Hessian,TD-DFT gradient, ASA, ECA, R-Raman, ABS, FL, XAS/XES, NRVS
   Peter Pinski           : DLPNO-MP2, DLPNO-MP2 Gradient
   Christoph Reimann      : Effective Core Potentials
   Marius Retegan         : Local ZFS, SOC
   Christoph Riplinger    : Optimizer, TS searches, QM/MM, DLPNO-CCSD(T), (RO)-DLPNO pert. Triples
   Tobias Risthaus        : Range-separated hybrids, TD-DFT gradient, RPA, STAB
   Michael Roemelt        : Original ROCIS implementation
   Masaaki Saitow         : Open-shell DLPNO-CCSD energy and density
   Barbara Sandhoefer     : DKH picture change effects
   Avijit Sen             : IP-ROCIS
   Kantharuban Sivalingam : CASSCF convergence, NEVPT2, FIC-MRCI
   Bernardo de Souza      : ESD, SOC TD-DFT
   Georgi Stoychev        : AutoAux, RI-MP2 NMR
   Willem Van den Heuvel  : Paramagnetic NMR
   Boris Wezisla          : Elementary symmetry handling
   Frank Wennmohs         : Technical directorship


 We gratefully acknowledge several colleagues who have allowed us to
 interface, adapt or use parts of their codes:
   Stefan Grimme, W. Hujo, H. Kruse,             : VdW corrections, initial TS optimization,
                  C. Bannwarth                     DFT functionals, gCP, sTDA/sTD-DF
   Ed Valeev, F. Pavosevic, A. Kumar             : LibInt (2-el integral package), F12 methods
   Garnet Chan, S. Sharma, J. Yang, R. Olivares  : DMRG
   Ulf Ekstrom                                   : XCFun DFT Library
   Mihaly Kallay                                 : mrcc  (arbitrary order and MRCC methods)
   Andreas Klamt, Michael Diedenhofen            : otool_cosmo (COSMO solvation model)
   Jiri Pittner, Ondrej Demel                    : Mk-CCSD
   Frank Weinhold                                : gennbo (NPA and NBO analysis)
   Christopher J. Cramer and Donald G. Truhlar   : smd solvation model
   Lars Goerigk                                  : TD-DFT with DH, B97 family of functionals
   V. Asgeirsson, H. Jonsson                     : NEB implementation
   FAccTs GmbH                                   : IRC, NEB, NEB-TS, Multilevel, MM, QM/MM, CI optimization
   S Lehtola, MJT Oliveira, MAL Marques          : LibXC Library


 Your calculation uses the libint2 library for the computation of 2-el integrals
 For citations please refer to: http://libint.valeyev.net

 Your ORCA version has been built with support for libXC version: 4.2.3
 For citations please refer to: https://tddft.org/programs/libxc/

 This ORCA versions uses:
   CBLAS   interface :  Fast vector & matrix operations
   LAPACKE interface :  Fast linear algebra routines
   SCALAPACK package :  Parallel linear algebra routines


----- Orbital basis set information -----
Your calculation utilizes the basis: 6-31G
   H-He, Li-Ne : W. J. Hehre, R. Ditchfield and J.A. Pople, J. Chem. Phys. 56, 2257 (1972).
                 Note: He and Ne are unpublished basis sets taken from the Gaussian program.
                 Note: Li and B from J. D. Dill and J. A. Pople, J. Chem. Phys. 62, 2921 (1975).
   Na - Ar     : M. M. Francl, W. J. Pietro, W. J. Hehre, J. S. Binkley, M. S. Gordon, 
                 D. J. DeFrees and J. A. Pople, J. Chem. Phys. 77, 3654 (1982).
   K - Zn      : V. A. Rassolov, J. A. Pople, M. A. Ratner, and T. L. Windus, J. Chem. Phys. 109, 1223 (1998).

================================================================================
                                        WARNINGS
                       Please study these warnings very carefully!
================================================================================


WARNING: Geometry Optimization
  ===> : Switching off AutoStart
         For restart on a previous wavefunction, please use MOREAD

INFO   : the flag for use of LIBINT has been found!

================================================================================
                                       INPUT FILE
================================================================================
NAME = project_8050/ensemble_300_105.inp
|  1> # Test redundant internal optimization
|  2> #
|  3> ! RKS B3LYP  Opt TightSCF SmallPrint
|  4> 
|  5> %basis
|  6>         Basis "6-31G"
|  7> end
|  8> 
|  9> %geom
| 10> Constraints
| 11> { D 4  0  15  12  300.0   C } # D for Dihedral angle
| 12> { D 0  15  12  16  105.0   C } # D for Dihedral angle
| 13> { D 0  4  3  2   C } # D for Dihedral angle
| 14> { D 4  3  2  1   C } # D for Dihedral angle
| 15> { D 3  2  1  0   C } # D for Dihedral angle
| 16> { D 2  1  0  4   C } # D for Dihedral angle
| 17> { D 1  0  4  3   C } # D for Dihedral angle
| 18> { D 16  20  19  18   C } # D for Dihedral angle
| 19> { D 20  19  18  17   C } # D for Dihedral angle
| 20> { D 19  18  17  16   C } # D for Dihedral angle
| 21> { D 18  17  16  20   C } # D for Dihedral angle
| 22> { D 17  16  20  19   C } # D for Dihedral angle
| 23> { D 15  12  16  20   C } # D for Dihedral angle
| 24> end
| 25> end
| 26> 
| 27> 
| 28> #%pal 
| 29> #nprocs 8
| 30> #end
| 31> 
| 32> * xyz 0 1
| 33> C  -21.048   26.222   46.251
| 34> C  -20.361   27.558   45.944
| 35> C  -20.329   28.222   47.341
| 36> C  -20.110   27.022   48.296
| 37> O  -20.473   25.807   47.535
| 38> H  -20.833   25.428   45.533
| 39> H  -19.344   27.382   45.576
| 40> H  -20.898   28.157   45.201
| 41> H  -19.543   28.978   47.434
| 42> H  -21.289   28.710   47.548
| 43> H  -20.733   27.082   49.195
| 44> H  -19.064   26.913   48.597
| 45> C  -23.362   25.116   46.798
| 46> H  -24.245   25.000   46.157
| 47> H  -22.731   24.226   46.676
| 48> O  -22.586   26.394   46.375
| 49> C  -23.834   25.162   48.277
| 50> C  -24.858   26.281   48.500
| 51> C  -26.151   25.636   47.946
| 52> C  -25.993   24.144   48.331
| 53> O  -24.559   23.935   48.622
| 54> H  -22.960   25.212   48.930
| 55> O  -25.000   26.578   50.018
| 56> H  -24.595   27.214   47.990
| 57> H  -27.060   26.081   48.364
| 58> H  -26.192   25.753   46.857
| 59> H  -26.297   23.469   47.524
| 60> H  -26.547   23.885   49.236
| 61> H  -25.264   25.657   50.551
| 62> *
| 63> 
| 64>                          ****END OF INPUT****
================================================================================

                       *****************************
                       * Geometry Optimization Run *
                       *****************************

Geometry optimization settings:
Update method            Update   .... BFGS
Choice of coordinates    CoordSys .... Z-matrix Internals
Initial Hessian          InHess   .... Almoef's Model

Convergence Tolerances:
Energy Change            TolE     ....  5.0000e-06 Eh
Max. Gradient            TolMAXG  ....  3.0000e-04 Eh/bohr
RMS Gradient             TolRMSG  ....  1.0000e-04 Eh/bohr
Max. Displacement        TolMAXD  ....  4.0000e-03 bohr
RMS Displacement         TolRMSD  ....  2.0000e-03 bohr
Strict Convergence                ....  False
------------------------------------------------------------------------------
                        ORCA OPTIMIZATION COORDINATE SETUP
------------------------------------------------------------------------------

The optimization will be done in new redundant internal coordinates
Making redundant internal coordinates   ...  (new redundants) done
Evaluating the initial hessian          ...  (Almloef) done
Evaluating the coordinates              ...  done
Calculating the B-matrix                .... done
Calculating the G-matrix                .... done
Diagonalizing the G-matrix              .... done
Imposing constraints:
 Iter   0:  RMS(Cart)=    0.0000572159 RMS(Int)=    0.0000227282
 Iter   1:  RMS(Cart)=    0.0000277482 RMS(Int)=    0.0000123497
 Iter   2:  RMS(Cart)=    0.0000138899 RMS(Int)=    0.0000073130
 Iter   3:  RMS(Cart)=    0.0000072601 RMS(Int)=    0.0000048192
 Iter   4:  RMS(Cart)=    0.0000040086 RMS(Int)=    0.0000035557
 Iter   5:  RMS(Cart)=    0.0000023507 RMS(Int)=    0.0000028961
 Iter   6:  RMS(Cart)=    0.0000014568 RMS(Int)=    0.0000025358
 Iter   7:  RMS(Cart)=    0.0000009435 RMS(Int)=    0.0000023246
 Iter   8:  RMS(Cart)=    0.0000006345 RMS(Int)=    0.0000021884
 Iter   9:  RMS(Cart)=    0.0000004466 RMS(Int)=    0.0000020906
 Iter  10:  RMS(Cart)=    0.0000003375 RMS(Int)=    0.0000020129
 Iter  11:  RMS(Cart)=    0.0000002807 RMS(Int)=    0.0000019462
 Iter  12:  RMS(Cart)=    0.0000002555 RMS(Int)=    0.0000018859
 Iter  13:  RMS(Cart)=    0.0000002460 RMS(Int)=    0.0000018296
 Iter  14:  RMS(Cart)=    0.0000002426 RMS(Int)=    0.0000017763
 Iter  15:  RMS(Cart)=    0.0000002408 RMS(Int)=    0.0000017251
 Iter  16:  RMS(Cart)=    0.0000002388 RMS(Int)=    0.0000016759
 Iter  17:  RMS(Cart)=    0.0000002359 RMS(Int)=    0.0000016283
 Iter  18:  RMS(Cart)=    0.0000002322 RMS(Int)=    0.0000015824
 Iter  19:  RMS(Cart)=    0.0000002278 RMS(Int)=    0.0000015379
 Iter  20:  RMS(Cart)=    0.0000002229 RMS(Int)=    0.0000014947
 Iter  21:  RMS(Cart)=    0.0000002177 RMS(Int)=    0.0000014530
 Iter  22:  RMS(Cart)=    0.0000002123 RMS(Int)=    0.0000014126
 Iter  23:  RMS(Cart)=    0.0000002068 RMS(Int)=    0.0000013734
 Iter  24:  RMS(Cart)=    0.0000002012 RMS(Int)=    0.0000013354
 Iter  25:  RMS(Cart)=    0.0000001957 RMS(Int)=    0.0000012986
 Iter  26:  RMS(Cart)=    0.0000001903 RMS(Int)=    0.0000012629
 Iter  27:  RMS(Cart)=    0.0000001850 RMS(Int)=    0.0000012283
 Iter  28:  RMS(Cart)=    0.0000001798 RMS(Int)=    0.0000011948
 Iter  29:  RMS(Cart)=    0.0000001747 RMS(Int)=    0.0000011623
 Iter  30:  RMS(Cart)=    0.0000001698 RMS(Int)=    0.0000011308
 Iter  31:  RMS(Cart)=    0.0000001650 RMS(Int)=    0.0000011003
 Iter  32:  RMS(Cart)=    0.0000001603 RMS(Int)=    0.0000010706
 Iter  33:  RMS(Cart)=    0.0000001558 RMS(Int)=    0.0000010419
 Iter  34:  RMS(Cart)=    0.0000001514 RMS(Int)=    0.0000010141
 Iter  35:  RMS(Cart)=    0.0000001471 RMS(Int)=    0.0000009871
 Iter  36:  RMS(Cart)=    0.0000001430 RMS(Int)=    0.0000009609
 Iter  37:  RMS(Cart)=    0.0000001389 RMS(Int)=    0.0000009354
 Iter  38:  RMS(Cart)=    0.0000001350 RMS(Int)=    0.0000009108
 Iter  39:  RMS(Cart)=    0.0000001313 RMS(Int)=    0.0000008869
 Iter  40:  RMS(Cart)=    0.0000001276 RMS(Int)=    0.0000008637
 Iter  41:  RMS(Cart)=    0.0000001241 RMS(Int)=    0.0000008412
 Iter  42:  RMS(Cart)=    0.0000001206 RMS(Int)=    0.0000008193
 Iter  43:  RMS(Cart)=    0.0000001173 RMS(Int)=    0.0000007981
 Iter  44:  RMS(Cart)=    0.0000001140 RMS(Int)=    0.0000007776
 Iter  45:  RMS(Cart)=    0.0000001109 RMS(Int)=    0.0000007576
 Iter  46:  RMS(Cart)=    0.0000001078 RMS(Int)=    0.0000007382
 Iter  47:  RMS(Cart)=    0.0000001049 RMS(Int)=    0.0000007194
 Iter  48:  RMS(Cart)=    0.0000001020 RMS(Int)=    0.0000007012
 Iter  49:  RMS(Cart)=    0.0000000992 RMS(Int)=    0.0000006834
 Iter  50:  RMS(Cart)=    0.0000000965 RMS(Int)=    0.0000006662
 Iter  51:  RMS(Cart)=    0.0000000939 RMS(Int)=    0.0000006495
 Iter  52:  RMS(Cart)=    0.0000000913 RMS(Int)=    0.0000006333
 Iter  53:  RMS(Cart)=    0.0000000889 RMS(Int)=    0.0000006176
 Iter  54:  RMS(Cart)=    0.0000000865 RMS(Int)=    0.0000006023
 Iter  55:  RMS(Cart)=    0.0000000841 RMS(Int)=    0.0000005874
 Iter  56:  RMS(Cart)=    0.0000000819 RMS(Int)=    0.0000005730
 Iter  57:  RMS(Cart)=    0.0000000797 RMS(Int)=    0.0000005590
 Iter  58:  RMS(Cart)=    0.0000000776 RMS(Int)=    0.0000005454
 Iter  59:  RMS(Cart)=    0.0000000755 RMS(Int)=    0.0000005322
 Iter  60:  RMS(Cart)=    0.0000000735 RMS(Int)=    0.0000005193
 Iter  61:  RMS(Cart)=    0.0000000715 RMS(Int)=    0.0000005069
 Iter  62:  RMS(Cart)=    0.0000000696 RMS(Int)=    0.0000004947
 Iter  63:  RMS(Cart)=    0.0000000678 RMS(Int)=    0.0000004830
 Iter  64:  RMS(Cart)=    0.0000000660 RMS(Int)=    0.0000004715
 Iter  65:  RMS(Cart)=    0.0000000643 RMS(Int)=    0.0000004604
 Iter  66:  RMS(Cart)=    0.0000000626 RMS(Int)=    0.0000004496
 Iter  67:  RMS(Cart)=    0.0000000610 RMS(Int)=    0.0000004391
 Iter  68:  RMS(Cart)=    0.0000000594 RMS(Int)=    0.0000004289
 Iter  69:  RMS(Cart)=    0.0000000578 RMS(Int)=    0.0000004189
 Iter  70:  RMS(Cart)=    0.0000000563 RMS(Int)=    0.0000004093
 Iter  71:  RMS(Cart)=    0.0000000549 RMS(Int)=    0.0000003999
 Iter  72:  RMS(Cart)=    0.0000000535 RMS(Int)=    0.0000003908
 Iter  73:  RMS(Cart)=    0.0000000521 RMS(Int)=    0.0000003819
 Iter  74:  RMS(Cart)=    0.0000000507 RMS(Int)=    0.0000003733
 Iter  75:  RMS(Cart)=    0.0000000494 RMS(Int)=    0.0000003649
 Iter  76:  RMS(Cart)=    0.0000000482 RMS(Int)=    0.0000003568
 Iter  77:  RMS(Cart)=    0.0000000470 RMS(Int)=    0.0000003488
 Iter  78:  RMS(Cart)=    0.0000000458 RMS(Int)=    0.0000003411
 Iter  79:  RMS(Cart)=    0.0000000446 RMS(Int)=    0.0000003336
 Iter  80:  RMS(Cart)=    0.0000000435 RMS(Int)=    0.0000003263
 Iter  81:  RMS(Cart)=    0.0000000424 RMS(Int)=    0.0000003192
 Iter  82:  RMS(Cart)=    0.0000000413 RMS(Int)=    0.0000003123
 Iter  83:  RMS(Cart)=    0.0000000403 RMS(Int)=    0.0000003056
 Iter  84:  RMS(Cart)=    0.0000000393 RMS(Int)=    0.0000002990
 Iter  85:  RMS(Cart)=    0.0000000383 RMS(Int)=    0.0000002927
 Iter  86:  RMS(Cart)=    0.0000000373 RMS(Int)=    0.0000002865
 Iter  87:  RMS(Cart)=    0.0000000364 RMS(Int)=    0.0000002804
 Iter  88:  RMS(Cart)=    0.0000000355 RMS(Int)=    0.0000002746
 Iter  89:  RMS(Cart)=    0.0000000346 RMS(Int)=    0.0000002688
 Iter  90:  RMS(Cart)=    0.0000000338 RMS(Int)=    0.0000002633
 Iter  91:  RMS(Cart)=    0.0000000330 RMS(Int)=    0.0000002579
 Iter  92:  RMS(Cart)=    0.0000000321 RMS(Int)=    0.0000002526
 Iter  93:  RMS(Cart)=    0.0000000314 RMS(Int)=    0.0000002474
 Iter  94:  RMS(Cart)=    0.0000000306 RMS(Int)=    0.0000002424
 Iter  95:  RMS(Cart)=    0.0000000299 RMS(Int)=    0.0000002375
 Iter  96:  RMS(Cart)=    0.0000000291 RMS(Int)=    0.0000002328
 Iter  97:  RMS(Cart)=    0.0000000284 RMS(Int)=    0.0000002282
 Iter  98:  RMS(Cart)=    0.0000000278 RMS(Int)=    0.0000002237
 Iter  99:  RMS(Cart)=    0.0000000271 RMS(Int)=    0.0000002193
 RMS(Cart) too big - taking linear step, building new B-matrix and trying again
Imposing constraints:
 Iter   0:  RMS(Cart)=    0.0000277477 RMS(Int)=    0.0000123497
 Iter   1:  RMS(Cart)=    0.0000138897 RMS(Int)=    0.0000073130
 Iter   2:  RMS(Cart)=    0.0000072599 RMS(Int)=    0.0000048192
 Iter   3:  RMS(Cart)=    0.0000040084 RMS(Int)=    0.0000035556
 Iter   4:  RMS(Cart)=    0.0000023506 RMS(Int)=    0.0000028961
 Iter   5:  RMS(Cart)=    0.0000014567 RMS(Int)=    0.0000025357
 Iter   6:  RMS(Cart)=    0.0000009435 RMS(Int)=    0.0000023246
 Iter   7:  RMS(Cart)=    0.0000006345 RMS(Int)=    0.0000021884
 Iter   8:  RMS(Cart)=    0.0000004466 RMS(Int)=    0.0000020906
 Iter   9:  RMS(Cart)=    0.0000003375 RMS(Int)=    0.0000020129
 Iter  10:  RMS(Cart)=    0.0000002807 RMS(Int)=    0.0000019462
 Iter  11:  RMS(Cart)=    0.0000002555 RMS(Int)=    0.0000018858
 Iter  12:  RMS(Cart)=    0.0000002459 RMS(Int)=    0.0000018296
 Iter  13:  RMS(Cart)=    0.0000002426 RMS(Int)=    0.0000017762
 Iter  14:  RMS(Cart)=    0.0000002408 RMS(Int)=    0.0000017251
 Iter  15:  RMS(Cart)=    0.0000002388 RMS(Int)=    0.0000016759
 Iter  16:  RMS(Cart)=    0.0000002359 RMS(Int)=    0.0000016283
 Iter  17:  RMS(Cart)=    0.0000002322 RMS(Int)=    0.0000015823
 Iter  18:  RMS(Cart)=    0.0000002278 RMS(Int)=    0.0000015378
 Iter  19:  RMS(Cart)=    0.0000002229 RMS(Int)=    0.0000014947
 Iter  20:  RMS(Cart)=    0.0000002177 RMS(Int)=    0.0000014530
 Iter  21:  RMS(Cart)=    0.0000002123 RMS(Int)=    0.0000014125
 Iter  22:  RMS(Cart)=    0.0000002067 RMS(Int)=    0.0000013734
 Iter  23:  RMS(Cart)=    0.0000002012 RMS(Int)=    0.0000013354
 Iter  24:  RMS(Cart)=    0.0000001957 RMS(Int)=    0.0000012986
 Iter  25:  RMS(Cart)=    0.0000001903 RMS(Int)=    0.0000012629
 Iter  26:  RMS(Cart)=    0.0000001850 RMS(Int)=    0.0000012283
 Iter  27:  RMS(Cart)=    0.0000001798 RMS(Int)=    0.0000011948
 Iter  28:  RMS(Cart)=    0.0000001747 RMS(Int)=    0.0000011623
 Iter  29:  RMS(Cart)=    0.0000001698 RMS(Int)=    0.0000011308
 Iter  30:  RMS(Cart)=    0.0000001650 RMS(Int)=    0.0000011003
 Iter  31:  RMS(Cart)=    0.0000001603 RMS(Int)=    0.0000010706
 Iter  32:  RMS(Cart)=    0.0000001558 RMS(Int)=    0.0000010419
 Iter  33:  RMS(Cart)=    0.0000001514 RMS(Int)=    0.0000010141
 Iter  34:  RMS(Cart)=    0.0000001471 RMS(Int)=    0.0000009871
CONVERGED
Small eigenvalue found = 8.024e-03
Small eigenvalue found = 1.181e-02
Small eigenvalue found = 1.492e-02
The first mode is                       ....   91
The number of degrees of freedom        ....   81
Storing new coordinates                 .... done

    -----------------------------------------------------------------
                    Redundant Internal Coordinates


    -----------------------------------------------------------------
         Definition                    Initial Value    Approx d2E/dq
    -----------------------------------------------------------------
      1. B(C   1,C   0)                  1.5333         0.369027   
      2. B(C   2,C   1)                  1.5471         0.350825   
      3. B(C   3,C   2)                  1.5492         0.348147   
      4. B(O   4,C   0)                  1.4668         0.422031   
      5. B(O   4,C   3)                  1.4789         0.403699   
      6. B(H   5,C   0)                  1.0919         0.357632   
      7. B(H   6,C   1)                  1.0958         0.352561   
      8. B(H   7,C   1)                  1.0951         0.353431   
      9. B(H   8,C   2)                  1.0945         0.354166   
     10. B(H   9,C   2)                  1.0966         0.351438   
     11. B(H  10,C   3)                  1.0954         0.353010   
     12. B(H  11,C   3)                  1.0939         0.354989   
     13. B(H  13,C  12)                  1.0973         0.350596   
     14. B(H  14,C  12)                  1.0978         0.349940   
     15. B(O  15,C   0)                  1.5525         0.307993   
     16. B(O  15,C  12)                  1.5538         0.306545   
     17. B(C  16,C  12)                  1.5532         0.343091   
     18. B(C  17,C  16)                  1.5331         0.369313   
     19. B(C  18,C  17)                  1.5475         0.350300   
     20. B(C  19,C  18)                  1.5490         0.348450   
     21. B(O  20,C  16)                  1.4663         0.422733   
     22. B(O  20,C  19)                  1.4781         0.404903   
     23. B(H  21,C  16)                  1.0921         0.357271   
     24. B(O  22,C  17)                  1.5533         0.307159   
     25. B(H  23,C  17)                  1.0953         0.353112   
     26. B(H  24,C  18)                  1.0950         0.353543   
     27. B(H  25,C  18)                  1.0960         0.352205   
     28. B(H  26,C  19)                  1.0951         0.353389   
     29. B(H  27,C  19)                  1.0923         0.357129   
     30. B(H  28,O  22)                  1.0964         0.315063   
     31. A(O   4,C   0,H   5)          107.0212         0.328541   
     32. A(C   1,C   0,O  15)          111.3023         0.348740   
     33. A(C   1,C   0,O   4)          104.2486         0.367935   
     34. A(O   4,C   0,O  15)          110.4734         0.354548   
     35. A(C   1,C   0,H   5)          114.4379         0.323302   
     36. A(H   5,C   0,O  15)          109.1574         0.312058   
     37. A(C   0,C   1,C   2)          101.6796         0.358729   
     38. A(C   2,C   1,H   7)          112.8320         0.320016   
     39. A(C   2,C   1,H   6)          110.6707         0.319888   
     40. A(C   0,C   1,H   6)          110.0677         0.322546   
     41. A(H   6,C   1,H   7)          108.3681         0.289027   
     42. A(C   0,C   1,H   7)          113.1242         0.322677   
     43. A(C   1,C   2,H   8)          112.8318         0.320125   
     44. A(C   1,C   2,C   3)          103.1269         0.355196   
     45. A(C   1,C   2,H   9)          110.0800         0.319721   
     46. A(C   3,C   2,H   9)          110.6152         0.319321   
     47. A(C   3,C   2,H   8)          112.4038         0.319725   
     48. A(H   8,C   2,H   9)          107.7728         0.288977   
     49. A(O   4,C   3,H  10)          109.1298         0.325449   
     50. A(C   2,C   3,H  10)          112.5254         0.319554   
     51. A(C   2,C   3,O   4)          106.5274         0.361529   
     52. A(O   4,C   3,H  11)          107.1237         0.325748   
     53. A(H  10,C   3,H  11)          108.8728         0.289284   
     54. A(C   2,C   3,H  11)          112.4566         0.319846   
     55. A(C   0,O   4,C   3)          108.3146         0.371320   
     56. A(H  14,C  12,C  16)          107.7317         0.318338   
     57. A(H  13,C  12,H  14)          108.1748         0.288326   
     58. A(H  13,C  12,O  15)          109.2576         0.310820   
     59. A(H  14,C  12,O  15)          110.4556         0.310726   
     60. A(O  15,C  12,C  16)          112.7456         0.344219   
     61. A(H  13,C  12,C  16)          108.3492         0.318435   
     62. A(C   0,O  15,C  12)          115.1731         0.336011   
     63. A(C  12,C  16,C  17)          111.2911         0.357418   
     64. A(C  12,C  16,O  20)          110.4575         0.363475   
     65. A(C  17,C  16,O  20)          104.2582         0.368089   
     66. A(C  12,C  16,H  21)          109.1177         0.319417   
     67. A(C  17,C  16,H  21)          114.4643         0.323290   
     68. A(O  20,C  16,H  21)          107.0555         0.328577   
     69. A(C  16,C  17,C  18)          101.6411         0.358685   
     70. A(C  16,C  17,O  22)          110.0458         0.348627   
     71. A(C  18,C  17,O  22)          110.6815         0.345539   
     72. A(C  16,C  17,H  23)          113.1795         0.322670   
     73. A(C  18,C  17,H  23)          112.8899         0.319891   
     74. A(O  22,C  17,H  23)          108.3074         0.311280   
     75. A(C  17,C  18,C  19)          103.1361         0.355158   
     76. A(C  17,C  18,H  24)          112.8030         0.319955   
     77. A(C  19,C  18,H  24)          112.4108         0.319678   
     78. A(C  17,C  18,H  25)          110.0268         0.319757   
     79. A(C  19,C  18,H  25)          110.7076         0.319480   
     80. A(H  24,C  18,H  25)          107.7491         0.288996   
     81. A(C  18,C  19,O  20)          106.5049         0.361766   
     82. A(C  18,C  19,H  26)          112.4719         0.319655   
     83. A(O  20,C  19,H  26)          109.1014         0.325665   
     84. A(C  18,C  19,H  27)          112.4955         0.320206   
     85. A(O  20,C  19,H  27)          107.1832         0.326230   
     86. A(H  26,C  19,H  27)          108.8817         0.289605   
     87. A(C  16,O  20,C  19)          108.3631         0.371617   
     88. A(C  17,O  22,H  28)          109.6636         0.303093   
     89. D(H   7,C   1,C   0,H   5)     82.1519         0.010890   
     90. D(C   2,C   1,C   0,O  15)     79.0870         0.010890   
     91. D(H   7,C   1,C   0,O  15)    -42.1868         0.010890   
     92. D(H   6,C   1,C   0,O   4)     77.3259         0.010890   
     93. D(H   6,C   1,C   0,O  15)   -163.5727         0.010890   
     94. D(H   6,C   1,C   0,H   5)    -39.2340         0.010890   
     95. D(H   7,C   1,C   0,O   4)   -161.2883         0.010890   
     96. D(C   2,C   1,C   0,O   4)    -40.0145         0.010890 C 
     97. D(C   2,C   1,C   0,H   5)   -156.5744         0.010890   
     98. D(H   9,C   2,C   1,H   6)    160.0776         0.009912   
     99. D(H   8,C   2,C   1,C   0)    156.5479         0.009912   
    100. D(H   8,C   2,C   1,H   6)     39.6446         0.009912   
    101. D(C   3,C   2,C   1,C   0)     35.0270         0.009912 C 
    102. D(H   8,C   2,C   1,H   7)    -81.9752         0.009912   
    103. D(H   9,C   2,C   1,C   0)    -83.0191         0.009912   
    104. D(C   3,C   2,C   1,H   6)    -81.8762         0.009912   
    105. D(H   9,C   2,C   1,H   7)     38.4578         0.009912   
    106. D(C   3,C   2,C   1,H   7)    156.5040         0.009912   
    107. D(H  11,C   3,C   2,H   9)   -143.4628         0.009774   
    108. D(O   4,C   3,C   2,H   8)   -140.0066         0.009774   
    109. D(O   4,C   3,C   2,H   9)     99.4740         0.009774   
    110. D(H  10,C   3,C   2,C   1)   -137.7432         0.009774   
    111. D(H  10,C   3,C   2,H   8)    100.4468         0.009774   
    112. D(H  10,C   3,C   2,H   9)    -20.0726         0.009774   
    113. D(H  11,C   3,C   2,C   1)     98.8666         0.009774   
    114. D(O   4,C   3,C   2,C   1)    -18.1967         0.009774 C 
    115. D(H  11,C   3,C   2,H   8)    -22.9433         0.009774   
    116. D(C   3,O   4,C   0,C   1)     29.5918         0.014035 C 
    117. D(C   3,O   4,C   0,H   5)    151.2016         0.014035   
    118. D(C   3,O   4,C   0,O  15)    -90.0715         0.014035   
    119. D(C   0,O   4,C   3,C   2)     -6.8732         0.012866 C 
    120. D(C   0,O   4,C   3,H  10)    114.8547         0.012866   
    121. D(C   0,O   4,C   3,H  11)   -127.4272         0.012866   
    122. D(C   0,O  15,C  12,C  16)    105.0000         0.007729 C 
    123. D(C  12,O  15,C   0,O   4)    -60.0000         0.007793 C 
    124. D(C  12,O  15,C   0,H   5)     57.4185         0.007793   
    125. D(C   0,O  15,C  12,H  14)    -15.5871         0.007729   
    126. D(C   0,O  15,C  12,H  13)   -134.4656         0.007729   
    127. D(C  12,O  15,C   0,C   1)   -175.3137         0.007793   
    128. D(C  17,C  16,C  12,H  13)    -56.3773         0.009516   
    129. D(H  21,C  16,C  12,H  14)     59.5465         0.009516   
    130. D(C  17,C  16,C  12,O  15)     64.6760         0.009516   
    131. D(O  20,C  16,C  12,H  13)     58.9317         0.009516   
    132. D(O  20,C  16,C  12,H  14)    -57.8805         0.009516   
    133. D(O  20,C  16,C  12,O  15)    179.9851         0.009516 C 
    134. D(C  17,C  16,C  12,H  14)   -173.1896         0.009516   
    135. D(H  21,C  16,C  12,H  13)    176.3587         0.009516   
    136. D(H  21,C  16,C  12,O  15)    -62.5879         0.009516   
    137. D(C  18,C  17,C  16,C  12)     79.0982         0.010906   
    138. D(C  18,C  17,C  16,O  20)    -39.9843         0.010906 C 
    139. D(C  18,C  17,C  16,H  21)   -156.6052         0.010906   
    140. D(O  22,C  17,C  16,C  12)   -163.5783         0.010906   
    141. D(O  22,C  17,C  16,O  20)     77.3392         0.010906   
    142. D(O  22,C  17,C  16,H  21)    -39.2817         0.010906   
    143. D(H  23,C  17,C  16,C  12)    -42.2485         0.010906   
    144. D(H  23,C  17,C  16,O  20)   -161.3310         0.010906   
    145. D(H  23,C  17,C  16,H  21)     82.0481         0.010906   
    146. D(H  24,C  18,C  17,H  23)    -81.8873         0.009885   
    147. D(C  19,C  18,C  17,O  22)    -81.8175         0.009885   
    148. D(C  19,C  18,C  17,H  23)    156.5927         0.009885   
    149. D(H  24,C  18,C  17,C  16)    156.5647         0.009885   
    150. D(C  19,C  18,C  17,C  16)     35.0447         0.009885 C 
    151. D(H  24,C  18,C  17,O  22)     39.7024         0.009885   
    152. D(H  25,C  18,C  17,C  16)    -83.0891         0.009885   
    153. D(H  25,C  18,C  17,O  22)    160.0486         0.009885   
    154. D(H  25,C  18,C  17,H  23)     38.4589         0.009885   
    155. D(H  27,C  19,C  18,H  25)   -143.4533         0.009789   
    156. D(O  20,C  19,C  18,H  24)   -140.0372         0.009789   
    157. D(O  20,C  19,C  18,H  25)     99.4041         0.009789   
    158. D(H  26,C  19,C  18,C  17)   -137.7188         0.009789   
    159. D(H  26,C  19,C  18,H  24)    100.4963         0.009789   
    160. D(H  26,C  19,C  18,H  25)    -20.0624         0.009789   
    161. D(H  27,C  19,C  18,C  17)     98.8904         0.009789   
    162. D(O  20,C  19,C  18,C  17)    -18.2523         0.009789 C 
    163. D(H  27,C  19,C  18,H  24)    -22.8946         0.009789   
    164. D(C  19,O  20,C  16,C  12)    -90.0927         0.014081   
    165. D(C  19,O  20,C  16,C  17)     29.5547         0.014081 C 
    166. D(C  19,O  20,C  16,H  21)    151.2166         0.014081   
    167. D(C  16,O  20,C  19,C  18)     -6.8088         0.012941 C 
    168. D(C  16,O  20,C  19,H  26)    114.8257         0.012941   
    169. D(C  16,O  20,C  19,H  27)   -127.4277         0.012941   
    170. D(H  28,O  22,C  17,C  16)    -55.8241         0.007756   
    171. D(H  28,O  22,C  17,C  18)     55.7269         0.007756   
    172. D(H  28,O  22,C  17,H  23)    179.9778         0.007756   
    -----------------------------------------------------------------

Number of atoms                         .... 29
Number of degrees of freedom            .... 172

         *************************************************************
         *                GEOMETRY OPTIMIZATION CYCLE   1            *
         *************************************************************
---------------------------------
CARTESIAN COORDINATES (ANGSTROEM)
---------------------------------
  C    -21.047988   26.221995   46.251030
  C    -20.361010   27.558000   45.943977
  C    -20.328924   28.222025   47.340966
  C    -20.109858   27.022035   48.295961
  O    -20.472900   25.807029   47.534999
  H    -20.833028   25.428003   45.533008
  H    -19.344033   27.381998   45.575913
  H    -20.898061   28.156991   45.201007
  H    -19.542921   28.978030   47.433907
  H    -21.288912   28.710024   47.548021
  H    -20.732800   27.082040   49.195001
  H    -19.063838   26.913043   48.596893
  C    -23.361984   25.116011   46.798080
  H    -24.244989   25.000030   46.157083
  H    -22.730980   24.226019   46.676040
  O    -22.585977   26.394022   46.375127
  C    -23.834052   25.161991   48.277059
  C    -24.858065   26.280982   48.500033
  C    -26.151037   25.635982   47.945970
  C    -25.993045   24.143976   48.330955
  O    -24.559055   23.934979   48.622011
  H    -22.960079   25.211982   48.930096
  O    -25.000130   26.577960   50.018031
  H    -24.595048   27.213991   47.990058
  H    -27.060057   26.080970   48.363939
  H    -26.191992   25.752997   46.856970
  H    -26.297008   23.468987   47.523932
  H    -26.547082   23.884959   49.235928
  H    -25.264147   25.656951   50.551007

----------------------------
CARTESIAN COORDINATES (A.U.)
----------------------------
  NO LB      ZA    FRAG     MASS         X           Y           Z
   0 C     6.0000    0    12.011  -39.774934   49.552389   87.401780
   1 C     6.0000    0    12.011  -38.476732   52.077072   86.821534
   2 C     6.0000    0    12.011  -38.416099   53.331898   89.461461
   3 C     6.0000    0    12.011  -38.002124   51.064245   91.266139
   4 O     8.0000    0    15.999  -38.688173   48.768217   89.828131
   5 H     1.0000    0     1.008  -39.368718   48.051962   86.044916
   6 H     1.0000    0     1.008  -36.554925   51.744477   86.125994
   7 H     1.0000    0     1.008  -39.491611   53.209001   85.417524
   8 H     1.0000    0     1.008  -36.930769   54.760540   89.637093
   9 H     1.0000    0     1.008  -40.230214   54.254083   89.852738
  10 H     1.0000    0     1.008  -39.179313   51.177639   92.965078
  11 H     1.0000    0     1.008  -36.025432   50.858280   91.834819
  12 C     6.0000    0    12.011  -44.147752   47.462382   88.435554
  13 H     1.0000    0     1.008  -45.816390   47.243211   87.224246
  14 H     1.0000    0     1.008  -42.955328   45.780542   88.204932
  15 O     8.0000    0    15.999  -42.681312   49.877474   87.636289
  16 C     6.0000    0    12.011  -45.039830   47.549272   91.230420
  17 C     6.0000    0    12.011  -46.974934   49.663859   91.651779
  18 C     6.0000    0    12.011  -49.418298   48.444984   90.604753
  19 C     6.0000    0    12.011  -49.119737   45.625502   91.332268
  20 O     8.0000    0    15.999  -46.409888   45.230556   91.882285
  21 H     1.0000    0     1.008  -43.388260   47.643741   92.464480
  22 O     8.0000    0    15.999  -47.243398   50.225065   94.520380
  23 H     1.0000    0     1.008  -46.477905   51.426991   90.688066
  24 H     1.0000    0     1.008  -51.136096   49.285891   91.394600
  25 H     1.0000    0     1.008  -49.495692   48.666111   88.546842
  26 H     1.0000    0     1.008  -49.694144   44.349957   89.807216
  27 H     1.0000    0     1.008  -50.166714   45.136032   93.042420
  28 H     1.0000    0     1.008  -47.742319   48.484610   95.527558

--------------------------------
INTERNAL COORDINATES (ANGSTROEM)
--------------------------------
 C      0   0   0     0.000000000000     0.00000000     0.00000000
 C      1   0   0     1.533334275362     0.00000000     0.00000000
 C      2   1   0     1.547103422529   101.67907390     0.00000000
 C      3   2   1     1.549188819996   103.12737509    35.02687180
 O      1   2   3     1.466801281701   104.24948604   319.98542309
 H      1   2   3     1.091872245274   114.43876658   203.42640133
 H      2   1   3     1.095759553917   110.06782188   117.34000099
 H      2   1   3     1.095088580892   113.12442239   238.72597460
 H      3   2   1     1.094523183857   112.83161078   156.54780790
 H      3   2   1     1.096628013503   110.07982737   276.98070077
 H      4   3   2     1.095413164062   112.52534669   222.25678475
 H      4   3   2     1.093891219455   112.45670684    98.86663270
 C      1   2   3     2.622411294973   143.57019707    74.85255495
 H     13   1   2     1.097281185476   129.25789760    67.83789014
 H     13   1   2     1.097790963708    79.13751755   172.51426938
 O      1   2   3     1.552547583812   111.30349807    79.08752829
 C     13   1   2     1.553171271947   117.01921903   277.00373894
 C     17  13   1     1.533122956582   111.29081275   100.19551221
 C     18  17  13     1.547510904647   101.64124071    79.09805279
 C     19  18  17     1.548952226507   103.13603407    35.04473396
 O     17  13   1     1.466348867085   110.45753927   215.50418994
 H     17  13   1     1.092146968132   109.11794942   332.93177528
 O     18  17  13     1.553285871950   110.04572719   196.42163365
 H     18  17  13     1.095334652058   113.17940562   317.75141079
 H     19  18  17     1.095002283103   112.80308094   156.56470402
 H     19  18  17     1.096034214794   110.02678808   276.91090750
 H     20  19  18     1.095120997881   112.47188374   222.28122476
 H     20  19  18     1.092255464624   112.49550781    98.89038140
 H     23  18  17     1.096369463274   109.66355814   304.17587198

---------------------------
INTERNAL COORDINATES (A.U.)
---------------------------
 C      0   0   0     0.000000000000     0.00000000     0.00000000
 C      1   0   0     2.897581852189     0.00000000     0.00000000
 C      2   1   0     2.923601769431   101.67907390     0.00000000
 C      3   2   1     2.927542599525   103.12737509    35.02687180
 O      1   2   3     2.771852715300   104.24948604   319.98542309
 H      1   2   3     2.063339516798   114.43876658   203.42640133
 H      2   1   3     2.070685465531   110.06782188   117.34000099
 H      2   1   3     2.069417510270   113.12442239   238.72597460
 H      3   2   1     2.068349064717   112.83161078   156.54780790
 H      3   2   1     2.072326616307   110.07982737   276.98070077
 H      4   3   2     2.070030883569   112.52534669   222.25678475
 H      4   3   2     2.067154825070   112.45670684    98.86663270
 C      1   2   3     4.955639158000   143.57019707    74.85255495
 H     13   1   2     2.073560932454   129.25789760    67.83789014
 H     13   1   2     2.074524273703    79.13751755   172.51426938
 O      1   2   3     2.933889743286   111.30349807    79.08752829
 C     13   1   2     2.935068343053   117.01921903   277.00373894
 C     17  13   1     2.897182517568   111.29081275   100.19551221
 C     18  17  13     2.924371799039   101.64124071    79.09805279
 C     19  18  17     2.927095502625   103.13603407    35.04473396
 O     17  13   1     2.770997775575   110.45753927   215.50418994
 H     17  13   1     2.063858667762   109.11794942   332.93177528
 O     18  17  13     2.935284905675   110.04572719   196.42163365
 H     18  17  13     2.069882517384   113.17940562   317.75141079
 H     19  18  17     2.069254431082   112.80308094   156.56470402
 H     19  18  17     2.071204499369   110.02678808   276.91090750
 H     20  19  18     2.069478769502   112.47188374   222.28122476
 H     20  19  18     2.064063696417   112.49550781    98.89038140
 H     23  18  17     2.071838027182   109.66355814   304.17587198

---------------------
BASIS SET INFORMATION
---------------------
There are 3 groups of distinct atoms

 Group   1 Type C   : 10s4p contracted to 3s2p pattern {631/31}
 Group   2 Type O   : 10s4p contracted to 3s2p pattern {631/31}
 Group   3 Type H   : 4s contracted to 2s pattern {31}

Atom   0C    basis set group =>   1
Atom   1C    basis set group =>   1
Atom   2C    basis set group =>   1
Atom   3C    basis set group =>   1
Atom   4O    basis set group =>   2
Atom   5H    basis set group =>   3
Atom   6H    basis set group =>   3
Atom   7H    basis set group =>   3
Atom   8H    basis set group =>   3
Atom   9H    basis set group =>   3
Atom  10H    basis set group =>   3
Atom  11H    basis set group =>   3
Atom  12C    basis set group =>   1
Atom  13H    basis set group =>   3
Atom  14H    basis set group =>   3
Atom  15O    basis set group =>   2
Atom  16C    basis set group =>   1
Atom  17C    basis set group =>   1
Atom  18C    basis set group =>   1
Atom  19C    basis set group =>   1
Atom  20O    basis set group =>   2
Atom  21H    basis set group =>   3
Atom  22O    basis set group =>   2
Atom  23H    basis set group =>   3
Atom  24H    basis set group =>   3
Atom  25H    basis set group =>   3
Atom  26H    basis set group =>   3
Atom  27H    basis set group =>   3
Atom  28H    basis set group =>   3
------------------------------------------------------------------------------
                           ORCA GTO INTEGRAL CALCULATION
------------------------------------------------------------------------------

                         BASIS SET STATISTICS AND STARTUP INFO

 # of primitive gaussian shells          ...  246
 # of primitive gaussian functions       ...  350
 # of contracted shells                  ...   97
 # of contracted basis functions         ...  149
 Highest angular momentum                ...    1
 Maximum contraction depth               ...    6
 Integral package used                   ... LIBINT
 Integral threshhold            Thresh   ...  2.500e-11
 Primitive cut-off              TCut     ...  2.500e-12


------------------------------ INTEGRAL EVALUATION ----------------------------


 * One electron integrals 
 Pre-screening matrix                    ... done
 Shell pair data                         ... done (   0.002 sec)

-------------------------------------------------------------------------------
                                 ORCA SCF
-------------------------------------------------------------------------------

------------
SCF SETTINGS
------------
Hamiltonian:
 Density Functional     Method          .... DFT(GTOs)
 Exchange Functional    Exchange        .... B88
   X-Alpha parameter    XAlpha          ....  0.666667
   Becke's b parameter  XBeta           ....  0.004200
 Correlation Functional Correlation     .... LYP
 LDA part of GGA corr.  LDAOpt          .... VWN-5
 Gradients option       PostSCFGGA      .... off
 Hybrid DFT is turned on
   Fraction HF Exchange ScalHFX         ....  0.200000
   Scaling of DF-GGA-X  ScalDFX         ....  0.720000
   Scaling of DF-GGA-C  ScalDFC         ....  0.810000
   Scaling of DF-LDA-C  ScalLDAC        ....  1.000000
   Perturbative correction              ....  0.000000
   Density functional embedding theory  .... OFF
   NL short-range parameter             ....  4.800000


General Settings:
 Integral files         IntName         .... project_8050/ensemble_300_105
 Hartree-Fock type      HFTyp           .... RHF
 Total Charge           Charge          ....    0
 Multiplicity           Mult            ....    1
 Number of Electrons    NEL             ....  102
 Basis Dimension        Dim             ....  149
 Nuclear Repulsion      ENuc            ....    866.3795810953 Eh

Convergence Acceleration:
 DIIS                   CNVDIIS         .... on
   Start iteration      DIISMaxIt       ....    12
   Startup error        DIISStart       ....  0.200000
   # of expansion vecs  DIISMaxEq       ....     5
   Bias factor          DIISBfac        ....   1.050
   Max. coefficient     DIISMaxC        ....  10.000
 Newton-Raphson         CNVNR           .... off
 SOSCF                  CNVSOSCF        .... on
   Start iteration      SOSCFMaxIt      ....   150
   Startup grad/error   SOSCFStart      ....  0.003300
 Level Shifting         CNVShift        .... on
   Level shift para.    LevelShift      ....    0.2500
   Turn off err/grad.   ShiftErr        ....    0.0010
 Zerner damping         CNVZerner       .... off
 Static damping         CNVDamp         .... on
   Fraction old density DampFac         ....    0.7000
   Max. Damping (<1)    DampMax         ....    0.9800
   Min. Damping (>=0)   DampMin         ....    0.0000
   Turn off err/grad.   DampErr         ....    0.1000
 Fernandez-Rico         CNVRico         .... off

SCF Procedure:
 Maximum # iterations   MaxIter         ....   125
 SCF integral mode      SCFMode         .... Direct
   Integral package                     .... LIBINT
 Reset frequency        DirectResetFreq ....    20
 Integral Threshold     Thresh          ....  2.500e-11 Eh
 Primitive CutOff       TCut            ....  2.500e-12 Eh

Convergence Tolerance:
 Convergence Check Mode ConvCheckMode   .... Total+1el-Energy
 Convergence forced     ConvForced      .... 0
 Energy Change          TolE            ....  1.000e-08 Eh
 1-El. energy change                    ....  1.000e-05 Eh
 Orbital Gradient       TolG            ....  1.000e-05
 Orbital Rotation angle TolX            ....  1.000e-05
 DIIS Error             TolErr          ....  5.000e-07


Diagonalization of the overlap matrix:
Smallest eigenvalue                        ... 4.222e-03
Time for diagonalization                   ...    0.006 sec
Threshold for overlap eigenvalues          ... 1.000e-08
Number of eigenvalues below threshold      ... 0
Time for construction of square roots      ...    0.030 sec
Total time needed                          ...    0.036 sec

-------------------
DFT GRID GENERATION
-------------------

General Integration Accuracy     IntAcc      ...  4.340
Radial Grid Type                 RadialGrid  ... Gauss-Chebyshev
Angular Grid (max. acc.)         AngularGrid ... Lebedev-110
Angular grid pruning method      GridPruning ... 3 (G Style)
Weight generation scheme         WeightScheme... Becke
Basis function cutoff            BFCut       ...    1.0000e-11
Integration weight cutoff        WCut        ...    1.0000e-14
Grids for H and He will be reduced by one unit

# of grid points (after initial pruning)     ...  34472 (   0.0 sec)
# of grid points (after weights+screening)   ...  30986 (   0.4 sec)
nearest neighbour list constructed           ...    0.0 sec
Grid point re-assignment to atoms done       ...    0.0 sec
Grid point division into batches done        ...    0.0 sec
Reduced shell lists constructed in    0.4 sec

Total number of grid points                  ...    30986
Total number of batches                      ...      497
Average number of points per batch           ...       62
Average number of grid points per atom       ...     1068
Average number of shells per batch           ...    58.57 (60.38%)
Average number of basis functions per batch  ...    95.18 (63.88%)
Average number of large shells per batch     ...    41.08 (70.15%)
Average number of large basis fcns per batch ...    68.10 (71.55%)
Maximum spatial batch extension              ...  19.44, 20.09, 20.82 au
Average spatial batch extension              ...   3.24,  3.49,  3.43 au

Time for grid setup =    0.938 sec

------------------------------
INITIAL GUESS: MODEL POTENTIAL
------------------------------
Loading Hartree-Fock densities                     ... done
Calculating cut-offs                               ... done
Setting up the integral package                    ... done
Initializing the effective Hamiltonian             ... done
Starting the Coulomb interaction                   ... done (   0.5 sec)
Reading the grid                                   ... done
Mapping shells                                     ... done
Starting the XC term evaluation                    ... done (   0.5 sec)
  promolecular density results
     # of electrons  =    101.990571848
     EX              =    -83.659853603
     EC              =     -3.456012448
     EX+EC           =    -87.115866051
Transforming the Hamiltonian                       ... done (   0.0 sec)
Diagonalizing the Hamiltonian                      ... done (   0.0 sec)
Back transforming the eigenvectors                 ... done (   0.0 sec)
Now organizing SCF variables                       ... done
                      ------------------
                      INITIAL GUESS DONE (   2.1 sec)
                      ------------------
--------------
SCF ITERATIONS
--------------
ITER       Energy         Delta-E        Max-DP      RMS-DP      [F,P]     Damp
               ***  Starting incremental Fock matrix formation  ***
  0   -652.5499100563   0.000000000000 0.08087959  0.00294155  0.2470365 0.7000
  1   -652.6871303967  -0.137220340367 0.04746438  0.00201247  0.0992521 0.7000
                               ***Turning on DIIS***
  2   -652.7390823429  -0.051951946202 0.05435385  0.00325076  0.0312248 0.0000
  3   -652.8241823017  -0.085099958779 0.03275328  0.00132962  0.0548214 0.0000
  4   -652.8414385187  -0.017256216993 0.00793390  0.00041799  0.0123702 0.0000
  5   -652.8423645636  -0.000926044938 0.00284531  0.00012647  0.0042074 0.0000
                      *** Initiating the SOSCF procedure ***
                           *** Shutting down DIIS ***
                      *** Re-Reading the Fockian *** 
                      *** Removing any level shift *** 
ITER      Energy       Delta-E        Grad      Rot      Max-DP    RMS-DP
  6   -652.84243557  -0.0000710065  0.000194  0.000194  0.000893  0.000053
               *** Restarting incremental Fock matrix formation ***
  7   -652.84243842  -0.0000028451  0.000130  0.000218  0.000975  0.000029
  8   -652.84243684   0.0000015776  0.000227  0.000169  0.000599  0.000018
  9   -652.84243954  -0.0000026997  0.000027  0.000046  0.000218  0.000007
 10   -652.84243945   0.0000000845  0.000044  0.000029  0.000141  0.000004
 11   -652.84243960  -0.0000001514  0.000007  0.000007  0.000036  0.000001
 12   -652.84243960   0.0000000015  0.000011  0.000004  0.000022  0.000001
                  ***Gradient check signals convergence***
              ***Rediagonalizing the Fockian in SOSCF/NRSCF***

               *****************************************************
               *                     SUCCESS                       *
               *           SCF CONVERGED AFTER  13 CYCLES          *
               *****************************************************

Setting up the final grid:

General Integration Accuracy     IntAcc      ...  4.670
Radial Grid Type                 RadialGrid  ... Gauss-Chebyshev
Angular Grid (max. acc.)         AngularGrid ... Lebedev-302
Angular grid pruning method      GridPruning ... 3 (G Style)
Weight generation scheme         WeightScheme... Becke
Basis function cutoff            BFCut       ...    1.0000e-11
Integration weight cutoff        WCut        ...    1.0000e-14
Grids for H and He will be reduced by one unit

# of grid points (after initial pruning)     ... 135060 (   0.1 sec)
# of grid points (after weights+screening)   ... 118880 (   1.7 sec)
nearest neighbour list constructed           ...    0.0 sec
Grid point re-assignment to atoms done       ...    0.0 sec
Grid point division into batches done        ...    0.5 sec
Reduced shell lists constructed in    1.8 sec

Total number of grid points                  ...   118880
Total number of batches                      ...     1873
Average number of points per batch           ...       63
Average number of grid points per atom       ...     4099
Average number of shells per batch           ...    53.18 (54.83%)
Average number of basis functions per batch  ...    86.67 (58.17%)
Average number of large shells per batch     ...    36.70 (69.01%)
Average number of large basis fcns per batch ...    60.95 (70.32%)
Maximum spatial batch extension              ...  19.73, 20.25, 21.33 au
Average spatial batch extension              ...   2.15,  2.23,  2.23 au

Final grid set up in    3.6 sec
Final integration                            ... done (   1.8 sec)
Change in XC energy                          ...    -0.000526563
Integrated number of electrons               ...   101.999632814
Previous integrated no of electrons          ...   101.998286956

----------------
TOTAL SCF ENERGY
----------------

Total Energy       :         -652.84296617 Eh          -17764.76025 eV

Components:
Nuclear Repulsion  :          866.37958110 Eh           23575.38695 eV
Electronic Energy  :        -1519.22254726 Eh          -41340.14720 eV
One Electron Energy:        -2610.80783061 Eh          -71043.69286 eV
Two Electron Energy:         1091.58528334 Eh           29703.54566 eV

Virial components:
Potential Energy   :        -1301.74860136 Eh          -35422.38028 eV
Kinetic Energy     :          648.90563519 Eh           17657.62003 eV
Virial Ratio       :            2.00606765


DFT components:
N(Alpha)           :       50.999816406929 electrons
N(Beta)            :       50.999816406929 electrons
N(Total)           :      101.999632813858 electrons
E(X)               :      -67.588618727420 Eh       
E(C)               :       -4.068374382503 Eh       
E(XC)              :      -71.656993109923 Eh       
DFET-embed. en.    :        0.000000000000 Eh       

---------------
SCF CONVERGENCE
---------------

  Last Energy change         ...   -3.1104e-09  Tolerance :   1.0000e-08
  Last MAX-Density change    ...    2.4138e-06  Tolerance :   1.0000e-07
  Last RMS-Density change    ...    1.0015e-07  Tolerance :   5.0000e-09
  Last Orbital Gradient      ...    3.6186e-07  Tolerance :   1.0000e-05
  Last Orbital Rotation      ...    6.1362e-07  Tolerance :   1.0000e-05

             **** THE GBW FILE WAS UPDATED (project_8050/ensemble_300_105.gbw) ****
             **** DENSITY FILE WAS UPDATED (project_8050/ensemble_300_105.scfp) ****
             **** ENERGY FILE WAS UPDATED (project_8050/ensemble_300_105.en.tmp) ****
             **** THE GBW FILE WAS UPDATED (project_8050/ensemble_300_105.gbw) ****
             **** DENSITY FILE WAS UPDATED (project_8050/ensemble_300_105.scfp) ****
----------------
ORBITAL ENERGIES
----------------

  NO   OCC          E(Eh)            E(eV) 
   0   2.0000     -19.148483      -521.0567 
   1   2.0000     -19.145926      -520.9871 
   2   2.0000     -19.143357      -520.9172 
   3   2.0000     -19.138106      -520.7743 
   4   2.0000     -10.285915      -279.8940 
   5   2.0000     -10.237844      -278.5859 
   6   2.0000     -10.231073      -278.4017 
   7   2.0000     -10.230465      -278.3851 
   8   2.0000     -10.229941      -278.3709 
   9   2.0000     -10.226535      -278.2782 
  10   2.0000     -10.193533      -277.3801 
  11   2.0000     -10.190147      -277.2880 
  12   2.0000     -10.187670      -277.2206 
  13   2.0000      -1.035954       -28.1897 
  14   2.0000      -1.028332       -27.9823 
  15   2.0000      -0.961204       -26.1557 
  16   2.0000      -0.957497       -26.0548 
  17   2.0000      -0.789925       -21.4949 
  18   2.0000      -0.778852       -21.1936 
  19   2.0000      -0.760518       -20.6947 
  20   2.0000      -0.730673       -19.8826 
  21   2.0000      -0.667354       -18.1596 
  22   2.0000      -0.599009       -16.2999 
  23   2.0000      -0.597841       -16.2681 
  24   2.0000      -0.589825       -16.0499 
  25   2.0000      -0.572184       -15.5699 
  26   2.0000      -0.508431       -13.8351 
  27   2.0000      -0.506430       -13.7807 
  28   2.0000      -0.489454       -13.3187 
  29   2.0000      -0.487553       -13.2670 
  30   2.0000      -0.461323       -12.5532 
  31   2.0000      -0.444964       -12.1081 
  32   2.0000      -0.443945       -12.0804 
  33   2.0000      -0.425475       -11.5778 
  34   2.0000      -0.415610       -11.3093 
  35   2.0000      -0.411669       -11.2021 
  36   2.0000      -0.400877       -10.9084 
  37   2.0000      -0.384124       -10.4526 
  38   2.0000      -0.372281       -10.1303 
  39   2.0000      -0.362247        -9.8572 
  40   2.0000      -0.358702        -9.7608 
  41   2.0000      -0.354885        -9.6569 
  42   2.0000      -0.350768        -9.5449 
  43   2.0000      -0.328410        -8.9365 
  44   2.0000      -0.319972        -8.7069 
  45   2.0000      -0.307211        -8.3596 
  46   2.0000      -0.300948        -8.1892 
  47   2.0000      -0.273843        -7.4517 
  48   2.0000      -0.262106        -7.1323 
  49   2.0000      -0.253136        -6.8882 
  50   2.0000      -0.238281        -6.4840 
  51   0.0000       0.039352         1.0708 
  52   0.0000       0.061488         1.6732 
  53   0.0000       0.085614         2.3297 
  54   0.0000       0.092171         2.5081 
  55   0.0000       0.100074         2.7232 
  56   0.0000       0.106846         2.9074 
  57   0.0000       0.113616         3.0917 
  58   0.0000       0.118157         3.2152 
  59   0.0000       0.134545         3.6611 
  60   0.0000       0.136353         3.7104 
  61   0.0000       0.148383         4.0377 
  62   0.0000       0.149034         4.0554 
  63   0.0000       0.157515         4.2862 
  64   0.0000       0.166352         4.5267 
  65   0.0000       0.169328         4.6076 
  66   0.0000       0.170985         4.6527 
  67   0.0000       0.180838         4.9209 
  68   0.0000       0.183601         4.9960 
  69   0.0000       0.196569         5.3489 
  70   0.0000       0.199027         5.4158 
  71   0.0000       0.218739         5.9522 
  72   0.0000       0.225207         6.1282 
  73   0.0000       0.229296         6.2395 
  74   0.0000       0.242675         6.6035 
  75   0.0000       0.246509         6.7078 
  76   0.0000       0.258216         7.0264 
  77   0.0000       0.266545         7.2531 
  78   0.0000       0.279138         7.5957 
  79   0.0000       0.286596         7.7987 
  80   0.0000       0.303272         8.2525 
  81   0.0000       0.525759        14.3066 
  82   0.0000       0.530733        14.4420 
  83   0.0000       0.546451        14.8697 
  84   0.0000       0.550579        14.9820 
  85   0.0000       0.553323        15.0567 
  86   0.0000       0.565347        15.3839 
  87   0.0000       0.572099        15.5676 
  88   0.0000       0.579575        15.7710 
  89   0.0000       0.591819        16.1042 
  90   0.0000       0.604666        16.4538 
  91   0.0000       0.609413        16.5830 
  92   0.0000       0.620251        16.8779 
  93   0.0000       0.625050        17.0085 
  94   0.0000       0.636108        17.3094 
  95   0.0000       0.647025        17.6064 
  96   0.0000       0.656228        17.8569 
  97   0.0000       0.666993        18.1498 
  98   0.0000       0.679466        18.4892 
  99   0.0000       0.704593        19.1730 
 100   0.0000       0.729337        19.8463 
 101   0.0000       0.759074        20.6555 
 102   0.0000       0.787244        21.4220 
 103   0.0000       0.803989        21.8777 
 104   0.0000       0.812779        22.1168 
 105   0.0000       0.820385        22.3238 
 106   0.0000       0.832450        22.6521 
 107   0.0000       0.855032        23.2666 
 108   0.0000       0.867188        23.5974 
 109   0.0000       0.871163        23.7056 
 110   0.0000       0.882747        24.0208 
 111   0.0000       0.892807        24.2945 
 112   0.0000       0.894067        24.3288 
 113   0.0000       0.908617        24.7247 
 114   0.0000       0.917851        24.9760 
 115   0.0000       0.929022        25.2800 
 116   0.0000       0.939893        25.5758 
 117   0.0000       0.950657        25.8687 
 118   0.0000       0.953728        25.9522 
 119   0.0000       0.957605        26.0578 
 120   0.0000       0.974016        26.5043 
 121   0.0000       0.983999        26.7760 
 122   0.0000       0.991264        26.9737 
 123   0.0000       1.003912        27.3178 
 124   0.0000       1.043592        28.3976 
 125   0.0000       1.055205        28.7136 
 126   0.0000       1.074309        29.2334 
 127   0.0000       1.087596        29.5950 
 128   0.0000       1.112379        30.2694 
 129   0.0000       1.148051        31.2401 
 130   0.0000       1.204246        32.7692 
 131   0.0000       1.217408        33.1273 
 132   0.0000       1.272145        34.6168 
 133   0.0000       1.281310        34.8662 
 134   0.0000       1.321582        35.9621 
 135   0.0000       1.350218        36.7413 
 136   0.0000       1.375790        37.4372 
 137   0.0000       1.391650        37.8687 
 138   0.0000       1.409176        38.3456 
 139   0.0000       1.459504        39.7151 
 140   0.0000       1.494381        40.6642 
 141   0.0000       1.570559        42.7371 
 142   0.0000       1.649263        44.8787 
 143   0.0000       1.668211        45.3943 
 144   0.0000       1.752595        47.6905 
 145   0.0000       1.864258        50.7290 
 146   0.0000       1.890764        51.4503 
 147   0.0000       2.057862        55.9973 
 148   0.0000       2.075803        56.4855 

                    ********************************
                    * MULLIKEN POPULATION ANALYSIS *
                    ********************************

-----------------------
MULLIKEN ATOMIC CHARGES
-----------------------
   0 C :    0.286253
   1 C :   -0.276200
   2 C :   -0.300194
   3 C :   -0.007385
   4 O :   -0.511134
   5 H :    0.153245
   6 H :    0.154669
   7 H :    0.162114
   8 H :    0.142769
   9 H :    0.166181
  10 H :    0.155951
  11 H :    0.143591
  12 C :   -0.031155
  13 H :    0.137930
  14 H :    0.157643
  15 O :   -0.526154
  16 C :    0.069410
  17 C :    0.082826
  18 C :   -0.313488
  19 C :   -0.029262
  20 O :   -0.521647
  21 H :    0.179895
  22 O :   -0.600378
  23 H :    0.174726
  24 H :    0.160739
  25 H :    0.152076
  26 H :    0.147231
  27 H :    0.144014
  28 H :    0.345734
Sum of atomic charges:   -0.0000000

--------------------------------
MULLIKEN REDUCED ORBITAL CHARGES
--------------------------------
  0 C s       :     3.226240  s :     3.226240
      pz      :     0.798726  p :     2.487507
      px      :     0.687722
      py      :     1.001060
  1 C s       :     3.312721  s :     3.312721
      pz      :     0.990529  p :     2.963480
      px      :     1.031568
      py      :     0.941382
  2 C s       :     3.316182  s :     3.316182
      pz      :     0.903864  p :     2.984012
      px      :     1.089861
      py      :     0.990287
  3 C s       :     3.262238  s :     3.262238
      pz      :     0.942949  p :     2.745147
      px      :     1.060079
      py      :     0.742119
  4 O s       :     3.940955  s :     3.940955
      pz      :     1.317061  p :     4.570179
      px      :     1.730529
      py      :     1.522589
  5 H s       :     0.846755  s :     0.846755
  6 H s       :     0.845331  s :     0.845331
  7 H s       :     0.837886  s :     0.837886
  8 H s       :     0.857231  s :     0.857231
  9 H s       :     0.833819  s :     0.833819
 10 H s       :     0.844049  s :     0.844049
 11 H s       :     0.856409  s :     0.856409
 12 C s       :     3.292352  s :     3.292352
      pz      :     0.952831  p :     2.738804
      px      :     0.962693
      py      :     0.823280
 13 H s       :     0.862070  s :     0.862070
 14 H s       :     0.842357  s :     0.842357
 15 O s       :     3.947631  s :     3.947631
      pz      :     1.829332  p :     4.578523
      px      :     1.258660
      py      :     1.490530
 16 C s       :     3.275389  s :     3.275389
      pz      :     0.980778  p :     2.655200
      px      :     0.948478
      py      :     0.725945
 17 C s       :     3.296699  s :     3.296699
      pz      :     0.689992  p :     2.620475
      px      :     0.916786
      py      :     1.013697
 18 C s       :     3.317227  s :     3.317227
      pz      :     1.050397  p :     2.996261
      px      :     1.016626
      py      :     0.929239
 19 C s       :     3.267311  s :     3.267311
      pz      :     1.080198  p :     2.761952
      px      :     0.703495
      py      :     0.978258
 20 O s       :     3.945697  s :     3.945697
      pz      :     1.819832  p :     4.575950
      px      :     1.231820
      py      :     1.524298
 21 H s       :     0.820105  s :     0.820105
 22 O s       :     3.951360  s :     3.951360
      pz      :     1.259267  p :     4.649018
      px      :     1.900478
      py      :     1.489273
 23 H s       :     0.825274  s :     0.825274
 24 H s       :     0.839261  s :     0.839261
 25 H s       :     0.847924  s :     0.847924
 26 H s       :     0.852769  s :     0.852769
 27 H s       :     0.855986  s :     0.855986
 28 H s       :     0.654266  s :     0.654266


                     *******************************
                     * LOEWDIN POPULATION ANALYSIS *
                     *******************************

----------------------
LOEWDIN ATOMIC CHARGES
----------------------
   0 C :    0.185491
   1 C :   -0.215218
   2 C :   -0.216577
   3 C :   -0.030630
   4 O :   -0.323525
   5 H :    0.104381
   6 H :    0.120121
   7 H :    0.127366
   8 H :    0.114120
   9 H :    0.120562
  10 H :    0.108694
  11 H :    0.102877
  12 C :   -0.044185
  13 H :    0.104300
  14 H :    0.115747
  15 O :   -0.371200
  16 C :    0.018446
  17 C :    0.043281
  18 C :   -0.240188
  19 C :   -0.040230
  20 O :   -0.325270
  21 H :    0.127136
  22 O :   -0.445325
  23 H :    0.130591
  24 H :    0.126520
  25 H :    0.115401
  26 H :    0.103582
  27 H :    0.100777
  28 H :    0.282957

-------------------------------
LOEWDIN REDUCED ORBITAL CHARGES
-------------------------------
  0 C s       :     2.981398  s :     2.981398
      pz      :     0.917643  p :     2.833111
      px      :     0.827771
      py      :     1.087696
  1 C s       :     2.974871  s :     2.974871
      pz      :     1.080736  p :     3.240347
      px      :     1.106361
      py      :     1.053250
  2 C s       :     2.972906  s :     2.972906
      pz      :     1.029500  p :     3.243670
      px      :     1.134694
      py      :     1.079477
  3 C s       :     2.983944  s :     2.983944
      pz      :     1.040072  p :     3.046686
      px      :     1.120823
      py      :     0.885791
  4 O s       :     3.609147  s :     3.609147
      pz      :     1.381523  p :     4.714379
      px      :     1.764392
      py      :     1.568464
  5 H s       :     0.895619  s :     0.895619
  6 H s       :     0.879879  s :     0.879879
  7 H s       :     0.872634  s :     0.872634
  8 H s       :     0.885880  s :     0.885880
  9 H s       :     0.879438  s :     0.879438
 10 H s       :     0.891306  s :     0.891306
 11 H s       :     0.897123  s :     0.897123
 12 C s       :     3.006470  s :     3.006470
      pz      :     1.068264  p :     3.037715
      px      :     1.047703
      py      :     0.921748
 13 H s       :     0.895700  s :     0.895700
 14 H s       :     0.884253  s :     0.884253
 15 O s       :     3.658811  s :     3.658811
      pz      :     1.846472  p :     4.712389
      px      :     1.325707
      py      :     1.540210
 16 C s       :     2.971279  s :     2.971279
      pz      :     1.078209  p :     3.010275
      px      :     1.045895
      py      :     0.886172
 17 C s       :     2.976466  s :     2.976466
      pz      :     0.832455  p :     2.980253
      px      :     1.045813
      py      :     1.101985
 18 C s       :     2.982078  s :     2.982078
      pz      :     1.117721  p :     3.258110
      px      :     1.090907
      py      :     1.049482
 19 C s       :     2.983391  s :     2.983391
      pz      :     1.132909  p :     3.056839
      px      :     0.845017
      py      :     1.078913
 20 O s       :     3.602632  s :     3.602632
      pz      :     1.844392  p :     4.722638
      px      :     1.302435
      py      :     1.575811
 21 H s       :     0.872864  s :     0.872864
 22 O s       :     3.694038  s :     3.694038
      pz      :     1.319494  p :     4.751287
      px      :     1.908479
      py      :     1.523315
 23 H s       :     0.869409  s :     0.869409
 24 H s       :     0.873480  s :     0.873480
 25 H s       :     0.884599  s :     0.884599
 26 H s       :     0.896418  s :     0.896418
 27 H s       :     0.899223  s :     0.899223
 28 H s       :     0.717043  s :     0.717043


                      *****************************
                      * MAYER POPULATION ANALYSIS *
                      *****************************

  NA   - Mulliken gross atomic population
  ZA   - Total nuclear charge
  QA   - Mulliken gross atomic charge
  VA   - Mayer's total valence
  BVA  - Mayer's bonded valence
  FA   - Mayer's free valence

  ATOM       NA         ZA         QA         VA         BVA        FA
  0 C      5.7137     6.0000     0.2863     3.6590     3.6590    -0.0000
  1 C      6.2762     6.0000    -0.2762     3.7350     3.7350    -0.0000
  2 C      6.3002     6.0000    -0.3002     3.7637     3.7637     0.0000
  3 C      6.0074     6.0000    -0.0074     3.6539     3.6539     0.0000
  4 O      8.5111     8.0000    -0.5111     1.7936     1.7936    -0.0000
  5 H      0.8468     1.0000     0.1532     0.9262     0.9262    -0.0000
  6 H      0.8453     1.0000     0.1547     0.9299     0.9299     0.0000
  7 H      0.8379     1.0000     0.1621     0.9375     0.9375     0.0000
  8 H      0.8572     1.0000     0.1428     0.9364     0.9364    -0.0000
  9 H      0.8338     1.0000     0.1662     0.9327     0.9327     0.0000
 10 H      0.8440     1.0000     0.1560     0.9251     0.9251    -0.0000
 11 H      0.8564     1.0000     0.1436     0.9286     0.9286    -0.0000
 12 C      6.0312     6.0000    -0.0312     3.6356     3.6356    -0.0000
 13 H      0.8621     1.0000     0.1379     0.9366     0.9366    -0.0000
 14 H      0.8424     1.0000     0.1576     0.9338     0.9338     0.0000
 15 O      8.5262     8.0000    -0.5262     1.7845     1.7845     0.0000
 16 C      5.9306     6.0000     0.0694     3.5690     3.5690     0.0000
 17 C      5.9172     6.0000     0.0828     3.6228     3.6228    -0.0000
 18 C      6.3135     6.0000    -0.3135     3.7075     3.7075    -0.0000
 19 C      6.0293     6.0000    -0.0293     3.6639     3.6639    -0.0000
 20 O      8.5216     8.0000    -0.5216     1.7658     1.7658    -0.0000
 21 H      0.8201     1.0000     0.1799     0.9390     0.9390     0.0000
 22 O      8.6004     8.0000    -0.6004     1.7551     1.7551     0.0000
 23 H      0.8253     1.0000     0.1747     0.9417     0.9417    -0.0000
 24 H      0.8393     1.0000     0.1607     0.9401     0.9401    -0.0000
 25 H      0.8479     1.0000     0.1521     0.9328     0.9328     0.0000
 26 H      0.8528     1.0000     0.1472     0.9269     0.9269    -0.0000
 27 H      0.8560     1.0000     0.1440     0.9293     0.9293    -0.0000
 28 H      0.6543     1.0000     0.3457     0.8504     0.8504    -0.0000

  Mayer bond orders larger than 0.100000
B(  0-C ,  1-C ) :   0.9472 B(  0-C ,  4-O ) :   0.8983 B(  0-C ,  5-H ) :   0.9197 
B(  0-C , 15-O ) :   0.8521 B(  1-C ,  2-C ) :   0.9566 B(  1-C ,  6-H ) :   0.9355 
B(  1-C ,  7-H ) :   0.9338 B(  2-C ,  3-C ) :   0.9543 B(  2-C ,  8-H ) :   0.9447 
B(  2-C ,  9-H ) :   0.9438 B(  3-C ,  4-O ) :   0.8339 B(  3-C , 10-H ) :   0.9323 
B(  3-C , 11-H ) :   0.9395 B( 12-C , 13-H ) :   0.9304 B( 12-C , 14-H ) :   0.9220 
B( 12-C , 15-O ) :   0.8478 B( 12-C , 16-C ) :   0.8765 B( 16-C , 17-C ) :   0.9090 
B( 16-C , 20-O ) :   0.8387 B( 16-C , 21-H ) :   0.9222 B( 17-C , 18-C ) :   0.9180 
B( 17-C , 22-O ) :   0.8816 B( 17-C , 23-H ) :   0.9230 B( 18-C , 19-C ) :   0.9399 
B( 18-C , 24-H ) :   0.9379 B( 18-C , 25-H ) :   0.9304 B( 19-C , 20-O ) :   0.8466 
B( 19-C , 26-H ) :   0.9347 B( 19-C , 27-H ) :   0.9378 B( 22-O , 28-H ) :   0.8119 


-------
TIMINGS
-------

Total SCF time: 0 days 0 hours 3 min 14 sec 

Total time                  ....     194.126 sec
Sum of individual times     ....     192.740 sec  ( 99.3%)

Fock matrix formation       ....     186.614 sec  ( 96.1%)
  XC integration            ....      36.166 sec  ( 19.4% of F)
    Basis function eval.    ....       3.845 sec  ( 10.6% of XC)
    Density eval.           ....       2.070 sec  (  5.7% of XC)
    XC-Functional eval.     ....       0.950 sec  (  2.6% of XC)
    XC-Potential eval.      ....       2.287 sec  (  6.3% of XC)
Diagonalization             ....       0.146 sec  (  0.1%)
Density matrix formation    ....       0.008 sec  (  0.0%)
Population analysis         ....       0.014 sec  (  0.0%)
Initial guess               ....       1.178 sec  (  0.6%)
Orbital Transformation      ....       0.000 sec  (  0.0%)
Orbital Orthonormalization  ....       0.000 sec  (  0.0%)
DIIS solution               ....       0.133 sec  (  0.1%)
SOSCF solution              ....       0.111 sec  (  0.1%)
Grid generation             ....       4.537 sec  (  2.3%)

-------------------------   --------------------
FINAL SINGLE POINT ENERGY      -652.842966169312
-------------------------   --------------------

------------------------------------------------------------------------------
                         ORCA SCF GRADIENT CALCULATION
------------------------------------------------------------------------------

Gradient of the Kohn-Sham DFT energy:
Kohn-Sham wavefunction type      ... RKS
Hartree-Fock exchange scaling    ...    0.200
Number of operators              ...    1
Number of atoms                  ...   29
Basis set dimensions             ...  149
Integral neglect threshold       ... 2.5e-11
Integral primitive cutoff        ... 2.5e-12

Nuclear repulsion gradient       ... done
One Electron Gradient            ... done
Pre-screening matrix             ... done
Starting the two electron gradient:
Two electron gradient done
Exchange-correlation gradient    ... done

------------------
CARTESIAN GRADIENT
------------------

   1   C   :    0.019445536    0.010299319   -0.014622036
   2   C   :    0.016125264   -0.004744005   -0.004265595
   3   C   :   -0.000102639   -0.000522884   -0.002014585
   4   C   :   -0.000242219   -0.005683124   -0.004352332
   5   O   :    0.008396680   -0.003550328    0.014789988
   6   H   :    0.004152708    0.002338581   -0.001734597
   7   H   :    0.001112689    0.003981198    0.000203483
   8   H   :    0.000414062    0.001973658   -0.001043349
   9   H   :   -0.000745025    0.000751931    0.000096575
  10   H   :   -0.000775867    0.001697849    0.001017728
  11   H   :   -0.000592196    0.000751629    0.001496989
  12   H   :   -0.000283499    0.001045929    0.000627361
  13   C   :   -0.017965650   -0.007600915   -0.001267929
  14   H   :   -0.006362752   -0.007612339    0.005637142
  15   H   :   -0.001696772   -0.003845713    0.001666545
  16   O   :   -0.014273228    0.023373384   -0.004284647
  17   C   :   -0.011939005   -0.014279467    0.007091526
  18   C   :    0.008064814    0.007649566   -0.029972645
  19   C   :    0.000908501    0.001136541   -0.004767530
  20   C   :    0.003026641   -0.000007665    0.003356752
  21   O   :   -0.000632729    0.000191656    0.004551076
  22   H   :    0.002475622   -0.002360499   -0.001100273
  23   O   :    0.012077365    0.050579448    0.002131237
  24   H   :   -0.000590421   -0.000088192   -0.011001406
  25   H   :   -0.003072645   -0.001256326   -0.000594994
  26   H   :    0.000394400   -0.001032917   -0.000141262
  27   H   :    0.000384633    0.000380940   -0.000913250
  28   H   :    0.001077863    0.000856248   -0.000958248
  29   H   :   -0.018782131   -0.054423502    0.040368274

Difference to translation invariance:
           :    0.0000000001   -0.0000000000   -0.0000000002

Norm of the cartesian gradient     ...    0.1095659995
RMS gradient                       ...    0.0117467081
MAX gradient                       ...    0.0544235024

-------
TIMINGS
-------

Total SCF gradient time            ...       43.922 sec

One electron gradient       ....       0.373 sec  (  0.8%)
Prescreening matrices       ....       0.064 sec  (  0.1%)
Two electron gradient       ....      23.521 sec  ( 53.6%)
XC gradient                 ....      14.411 sec  ( 32.8%)
------------------------------------------------------------------------------
                         ORCA GEOMETRY RELAXATION STEP
------------------------------------------------------------------------------

Reading the OPT-File                    .... done
Getting information on internals        .... done
Copying old internal coords+grads       .... done
Making the new internal coordinates     .... (new redundants).... done
Validating the new internal coordinates .... (new redundants).... done
Calculating the B-matrix                .... done
Calculating the G,G- and P matrices     .... done
Transforming gradient to internals      .... done
Projecting the internal gradient        .... done
Number of atoms                         ....  29
Number of internal coordinates          .... 172
Current Energy                          ....  -652.842966169 Eh
Current gradient norm                   ....     0.109565999 Eh/bohr
Maximum allowed component of the step   ....  0.300
Current trust radius                    ....  0.300
Evaluating the initial hessian          ....  (Almloef) done
Projecting the Hessian                  .... done
Forming the augmented Hessian           .... done
Diagonalizing the augmented Hessian     .... done
Last element of RFO vector              ....  0.943659410
Lowest eigenvalues of augmented Hessian:
 -0.038812405  0.007844878  0.032989618  0.033083757  0.036552336
Length of the computed step             ....  0.350675565
Warning: the length of the step is outside the trust region - taking restricted step instead
The input lambda is                     ....    -0.038812
   iter:   1  x=   -0.074349  g=    0.927876 f(x)=     0.032973
   iter:   2  x=   -0.086602  g=    0.582390 f(x)=     0.007136
   iter:   3  x=   -0.087434  g=    0.514843 f(x)=     0.000428
   iter:   4  x=   -0.087438  g=    0.510738 f(x)=     0.000002
   iter:   5  x=   -0.087438  g=    0.510722 f(x)=     0.000000
   iter:   6  x=   -0.087438  g=    0.510722 f(x)=     0.000000
The output lambda is                    ....    -0.087438 (6 iterations)
The final length of the internal step   ....  0.300000000
Converting the step to cartesian space:
 Initial RMS(Int)=    0.0228747855
Transforming coordinates:
 Iter   0:  RMS(Cart)=    0.1198776014 RMS(Int)=    0.4781677438
 Iter   1:  RMS(Cart)=    0.0014108023 RMS(Int)=    0.0006418059
 Iter   2:  RMS(Cart)=    0.0000930519 RMS(Int)=    0.0000502524
 Iter   3:  RMS(Cart)=    0.0000050340 RMS(Int)=    0.0000033390
 Iter   4:  RMS(Cart)=    0.0000002929 RMS(Int)=    0.0000001916
 Iter   5:  RMS(Cart)=    0.0000000243 RMS(Int)=    0.0000000114
Imposing constraints:
 Iter   0:  RMS(Cart)=    0.0001104436 RMS(Int)=    0.0000456199
 Iter   1:  RMS(Cart)=    0.0000613089 RMS(Int)=    0.0000300461
 Iter   2:  RMS(Cart)=    0.0000361755 RMS(Int)=    0.0000209999
 Iter   3:  RMS(Cart)=    0.0000225653 RMS(Int)=    0.0000154476
 Iter   4:  RMS(Cart)=    0.0000147323 RMS(Int)=    0.0000119859
 Iter   5:  RMS(Cart)=    0.0000099708 RMS(Int)=    0.0000098506
 Iter   6:  RMS(Cart)=    0.0000069518 RMS(Int)=    0.0000085545
 Iter   7:  RMS(Cart)=    0.0000049817 RMS(Int)=    0.0000077667
 Iter   8:  RMS(Cart)=    0.0000036742 RMS(Int)=    0.0000072706
 Iter   9:  RMS(Cart)=    0.0000027996 RMS(Int)=    0.0000069349
 Iter  10:  RMS(Cart)=    0.0000022137 RMS(Int)=    0.0000066854
 Iter  11:  RMS(Cart)=    0.0000018212 RMS(Int)=    0.0000064824
 Iter  12:  RMS(Cart)=    0.0000015576 RMS(Int)=    0.0000063051
 Iter  13:  RMS(Cart)=    0.0000013786 RMS(Int)=    0.0000061428
 Iter  14:  RMS(Cart)=    0.0000012542 RMS(Int)=    0.0000059899
 Iter  15:  RMS(Cart)=    0.0000011648 RMS(Int)=    0.0000058437
 Iter  16:  RMS(Cart)=    0.0000010978 RMS(Int)=    0.0000057027
 Iter  17:  RMS(Cart)=    0.0000010453 RMS(Int)=    0.0000055661
 Iter  18:  RMS(Cart)=    0.0000010024 RMS(Int)=    0.0000054335
 Iter  19:  RMS(Cart)=    0.0000009659 RMS(Int)=    0.0000053045
 Iter  20:  RMS(Cart)=    0.0000009339 RMS(Int)=    0.0000051790
 Iter  21:  RMS(Cart)=    0.0000009050 RMS(Int)=    0.0000050568
 Iter  22:  RMS(Cart)=    0.0000008785 RMS(Int)=    0.0000049378
 Iter  23:  RMS(Cart)=    0.0000008537 RMS(Int)=    0.0000048220
[...]
  29   2.0000      -0.487660       -13.2699 
  30   2.0000      -0.470421       -12.8008 
  31   2.0000      -0.457799       -12.4573 
  32   2.0000      -0.449817       -12.2401 
  33   2.0000      -0.435771       -11.8579 
  34   2.0000      -0.419630       -11.4187 
  35   2.0000      -0.411559       -11.1991 
  36   2.0000      -0.401865       -10.9353 
  37   2.0000      -0.390856       -10.6357 
  38   2.0000      -0.373090       -10.1523 
  39   2.0000      -0.364814        -9.9271 
  40   2.0000      -0.357871        -9.7382 
  41   2.0000      -0.355867        -9.6836 
  42   2.0000      -0.348050        -9.4709 
  43   2.0000      -0.331845        -9.0300 
  44   2.0000      -0.327382        -8.9085 
  45   2.0000      -0.305907        -8.3242 
  46   2.0000      -0.299354        -8.1458 
  47   2.0000      -0.280132        -7.6228 
  48   2.0000      -0.265455        -7.2234 
  49   2.0000      -0.256491        -6.9795 
  50   2.0000      -0.240026        -6.5314 
  51   0.0000       0.066438         1.8079 
  52   0.0000       0.080072         2.1789 
  53   0.0000       0.095240         2.5916 
  54   0.0000       0.100769         2.7421 
  55   0.0000       0.106141         2.8882 
  56   0.0000       0.110508         3.0071 
  57   0.0000       0.116679         3.1750 
  58   0.0000       0.131124         3.5681 
  59   0.0000       0.135709         3.6928 
  60   0.0000       0.141357         3.8465 
  61   0.0000       0.150930         4.1070 
  62   0.0000       0.155234         4.2241 
  63   0.0000       0.159971         4.3530 
  64   0.0000       0.173399         4.7184 
  65   0.0000       0.175148         4.7660 
  66   0.0000       0.182120         4.9557 
  67   0.0000       0.186922         5.0864 
  68   0.0000       0.193653         5.2696 
  69   0.0000       0.209031         5.6880 
  70   0.0000       0.218005         5.9322 
  71   0.0000       0.223136         6.0718 
  72   0.0000       0.235970         6.4211 
  73   0.0000       0.246362         6.7039 
  74   0.0000       0.254503         6.9254 
  75   0.0000       0.260102         7.0777 
  76   0.0000       0.267038         7.2665 
  77   0.0000       0.272786         7.4229 
  78   0.0000       0.285032         7.7561 
  79   0.0000       0.296568         8.0700 
  80   0.0000       0.309365         8.4182 
  81   0.0000       0.531284        14.4570 
  82   0.0000       0.534625        14.5479 
  83   0.0000       0.547905        14.9093 
  84   0.0000       0.549563        14.9544 
  85   0.0000       0.556631        15.1467 
  86   0.0000       0.567397        15.4397 
  87   0.0000       0.573035        15.5931 
  88   0.0000       0.579682        15.7739 
  89   0.0000       0.593189        16.1415 
  90   0.0000       0.611509        16.6400 
  91   0.0000       0.613611        16.6972 
  92   0.0000       0.625208        17.0128 
  93   0.0000       0.633761        17.2455 
  94   0.0000       0.639918        17.4131 
  95   0.0000       0.651160        17.7190 
  96   0.0000       0.666098        18.1254 
  97   0.0000       0.672620        18.3029 
  98   0.0000       0.695519        18.9260 
  99   0.0000       0.711223        19.3534 
 100   0.0000       0.731844        19.9145 
 101   0.0000       0.770133        20.9564 
 102   0.0000       0.796818        21.6825 
 103   0.0000       0.801985        21.8231 
 104   0.0000       0.822559        22.3830 
 105   0.0000       0.832339        22.6491 
 106   0.0000       0.847153        23.0522 
 107   0.0000       0.854348        23.2480 
 108   0.0000       0.865592        23.5540 
 109   0.0000       0.869379        23.6570 
 110   0.0000       0.889087        24.1933 
 111   0.0000       0.896212        24.3872 
 112   0.0000       0.904418        24.6105 
 113   0.0000       0.914858        24.8946 
 114   0.0000       0.921091        25.0642 
 115   0.0000       0.925236        25.1770 
 116   0.0000       0.940105        25.5815 
 117   0.0000       0.949728        25.8434 
 118   0.0000       0.955188        25.9920 
 119   0.0000       0.959522        26.1099 
 120   0.0000       0.979154        26.6441 
 121   0.0000       0.984905        26.8006 
 122   0.0000       0.993359        27.0307 
 123   0.0000       1.010435        27.4953 
 124   0.0000       1.052481        28.6395 
 125   0.0000       1.058243        28.7962 
 126   0.0000       1.087687        29.5975 
 127   0.0000       1.107360        30.1328 
 128   0.0000       1.121447        30.5161 
 129   0.0000       1.156491        31.4697 
 130   0.0000       1.219750        33.1911 
 131   0.0000       1.233336        33.5608 
 132   0.0000       1.264659        34.4131 
 133   0.0000       1.294024        35.2122 
 134   0.0000       1.318516        35.8786 
 135   0.0000       1.362205        37.0675 
 136   0.0000       1.392111        37.8813 
 137   0.0000       1.403804        38.1994 
 138   0.0000       1.423629        38.7389 
 139   0.0000       1.486530        40.4505 
 140   0.0000       1.520458        41.3738 
 141   0.0000       1.583771        43.0966 
 142   0.0000       1.676349        45.6158 
 143   0.0000       1.703074        46.3430 
 144   0.0000       1.793952        48.8159 
 145   0.0000       1.907642        51.9096 
 146   0.0000       1.943020        52.8723 
 147   0.0000       2.074062        56.4381 
 148   0.0000       2.124306        57.8053 

                    ********************************
                    * MULLIKEN POPULATION ANALYSIS *
                    ********************************

-----------------------
MULLIKEN ATOMIC CHARGES
-----------------------
   0 C :    0.282611
   1 C :   -0.262459
   2 C :   -0.299627
   3 C :   -0.012419
   4 O :   -0.512556
   5 H :    0.148211
   6 H :    0.146727
   7 H :    0.158280
   8 H :    0.142722
   9 H :    0.164763
  10 H :    0.154533
  11 H :    0.145388
  12 C :   -0.021677
  13 H :    0.140688
  14 H :    0.158092
  15 O :   -0.523744
  16 C :    0.059763
  17 C :    0.090217
  18 C :   -0.301867
  19 C :   -0.030619
  20 O :   -0.526926
  21 H :    0.175002
  22 O :   -0.606055
  23 H :    0.169946
  24 H :    0.159604
  25 H :    0.147101
  26 H :    0.146672
  27 H :    0.145335
  28 H :    0.362297
Sum of atomic charges:   -0.0000000

--------------------------------
MULLIKEN REDUCED ORBITAL CHARGES
--------------------------------
  0 C s       :     3.189859  s :     3.189859
      pz      :     0.813150  p :     2.527530
      px      :     0.687832
      py      :     1.026549
  1 C s       :     3.306289  s :     3.306289
      pz      :     0.980708  p :     2.956171
      px      :     1.045397
      py      :     0.930066
  2 C s       :     3.315184  s :     3.315184
      pz      :     0.907442  p :     2.984443
      px      :     1.087016
      py      :     0.989985
  3 C s       :     3.266123  s :     3.266123
      pz      :     0.933254  p :     2.746297
      px      :     1.071485
      py      :     0.741557
  4 O s       :     3.937947  s :     3.937947
      pz      :     1.305592  p :     4.574608
      px      :     1.744969
      py      :     1.524046
  5 H s       :     0.851789  s :     0.851789
  6 H s       :     0.853273  s :     0.853273
  7 H s       :     0.841720  s :     0.841720
  8 H s       :     0.857278  s :     0.857278
  9 H s       :     0.835237  s :     0.835237
 10 H s       :     0.845467  s :     0.845467
 11 H s       :     0.854612  s :     0.854612
 12 C s       :     3.267849  s :     3.267849
      pz      :     0.967741  p :     2.753828
      px      :     0.967463
      py      :     0.818625
 13 H s       :     0.859312  s :     0.859312
 14 H s       :     0.841908  s :     0.841908
 15 O s       :     3.925832  s :     3.925832
      pz      :     1.822038  p :     4.597913
      px      :     1.263159
      py      :     1.512715
 16 C s       :     3.270051  s :     3.270051
      pz      :     0.993320  p :     2.670186
      px      :     0.937155
      py      :     0.739711
 17 C s       :     3.258461  s :     3.258461
      pz      :     0.693995  p :     2.651322
      px      :     0.923376
      py      :     1.033952
 18 C s       :     3.312760  s :     3.312760
      pz      :     1.053002  p :     2.989106
      px      :     1.006339
      py      :     0.929765
 19 C s       :     3.270064  s :     3.270064
      pz      :     1.084365  p :     2.760555
      px      :     0.699508
      py      :     0.976682
 20 O s       :     3.947014  s :     3.947014
      pz      :     1.827147  p :     4.579912
      px      :     1.223959
      py      :     1.528806
 21 H s       :     0.824998  s :     0.824998
 22 O s       :     3.920864  s :     3.920864
      pz      :     1.243487  p :     4.685191
      px      :     1.924691
      py      :     1.517014
 23 H s       :     0.830054  s :     0.830054
 24 H s       :     0.840396  s :     0.840396
 25 H s       :     0.852899  s :     0.852899
 26 H s       :     0.853328  s :     0.853328
 27 H s       :     0.854665  s :     0.854665
 28 H s       :     0.637703  s :     0.637703


                     *******************************
                     * LOEWDIN POPULATION ANALYSIS *
                     *******************************

----------------------
LOEWDIN ATOMIC CHARGES
----------------------
   0 C :    0.172219
   1 C :   -0.214600
   2 C :   -0.215735
   3 C :   -0.030350
   4 O :   -0.331978
   5 H :    0.097396
   6 H :    0.115228
   7 H :    0.125002
   8 H :    0.114491
   9 H :    0.119705
  10 H :    0.107572
  11 H :    0.104366
  12 C :   -0.040901
  13 H :    0.103789
  14 H :    0.114647
  15 O :   -0.330440
  16 C :    0.009106
  17 C :    0.036594
  18 C :   -0.242280
  19 C :   -0.038887
  20 O :   -0.331069
  21 H :    0.121900
  22 O :   -0.416971
  23 H :    0.123881
  24 H :    0.125830
  25 H :    0.114555
  26 H :    0.103748
  27 H :    0.101860
  28 H :    0.281323

-------------------------------
LOEWDIN REDUCED ORBITAL CHARGES
-------------------------------
  0 C s       :     2.953322  s :     2.953322
      pz      :     0.927102  p :     2.874459
      px      :     0.850724
      py      :     1.096633
  1 C s       :     2.974862  s :     2.974862
      pz      :     1.076978  p :     3.239739
      px      :     1.114032
      py      :     1.048728
  2 C s       :     2.970487  s :     2.970487
      pz      :     1.031799  p :     3.245248
      px      :     1.133871
      py      :     1.079578
  3 C s       :     2.985847  s :     2.985847
      pz      :     1.032020  p :     3.044503
      px      :     1.129971
      py      :     0.882512
  4 O s       :     3.605037  s :     3.605037
      pz      :     1.374982  p :     4.726941
      px      :     1.781071
      py      :     1.570887
  5 H s       :     0.902604  s :     0.902604
  6 H s       :     0.884772  s :     0.884772
  7 H s       :     0.874998  s :     0.874998
  8 H s       :     0.885509  s :     0.885509
  9 H s       :     0.880295  s :     0.880295
 10 H s       :     0.892428  s :     0.892428
 11 H s       :     0.895634  s :     0.895634
 12 C s       :     2.982725  s :     2.982725
      pz      :     1.075059  p :     3.058176
      px      :     1.048877
      py      :     0.934240
 13 H s       :     0.896211  s :     0.896211
 14 H s       :     0.885353  s :     0.885353
 15 O s       :     3.585339  s :     3.585339
      pz      :     1.838390  p :     4.745101
      px      :     1.340247
      py      :     1.566464
 16 C s       :     2.969558  s :     2.969558
      pz      :     1.082905  p :     3.021336
      px      :     1.040833
      py      :     0.897598
 17 C s       :     2.953062  s :     2.953062
      pz      :     0.860095  p :     3.010344
      px      :     1.046567
      py      :     1.103681
 18 C s       :     2.983523  s :     2.983523
      pz      :     1.119985  p :     3.258757
      px      :     1.088905
      py      :     1.049866
 19 C s       :     2.985014  s :     2.985014
      pz      :     1.137445  p :     3.053873
      px      :     0.840103
      py      :     1.076325
 20 O s       :     3.604713  s :     3.604713
      pz      :     1.851489  p :     4.726356
      px      :     1.294562
      py      :     1.580305
 21 H s       :     0.878100  s :     0.878100
 22 O s       :     3.614428  s :     3.614428
      pz      :     1.310072  p :     4.802543
      px      :     1.931734
      py      :     1.560737
 23 H s       :     0.876119  s :     0.876119
 24 H s       :     0.874170  s :     0.874170
 25 H s       :     0.885445  s :     0.885445
 26 H s       :     0.896252  s :     0.896252
 27 H s       :     0.898140  s :     0.898140
 28 H s       :     0.718677  s :     0.718677


                      *****************************
                      * MAYER POPULATION ANALYSIS *
                      *****************************

  NA   - Mulliken gross atomic population
  ZA   - Total nuclear charge
  QA   - Mulliken gross atomic charge
  VA   - Mayer's total valence
  BVA  - Mayer's bonded valence
  FA   - Mayer's free valence

  ATOM       NA         ZA         QA         VA         BVA        FA
  0 C      5.7174     6.0000     0.2826     3.6760     3.6760    -0.0000
  1 C      6.2625     6.0000    -0.2625     3.7344     3.7344    -0.0000
  2 C      6.2996     6.0000    -0.2996     3.7661     3.7661     0.0000
  3 C      6.0124     6.0000    -0.0124     3.6570     3.6570    -0.0000
  4 O      8.5126     8.0000    -0.5126     1.7765     1.7765     0.0000
  5 H      0.8518     1.0000     0.1482     0.9293     0.9293     0.0000
  6 H      0.8533     1.0000     0.1467     0.9328     0.9328    -0.0000
  7 H      0.8417     1.0000     0.1583     0.9399     0.9399    -0.0000
  8 H      0.8573     1.0000     0.1427     0.9367     0.9367    -0.0000
  9 H      0.8352     1.0000     0.1648     0.9339     0.9339     0.0000
 10 H      0.8455     1.0000     0.1545     0.9256     0.9256     0.0000
 11 H      0.8546     1.0000     0.1454     0.9292     0.9292    -0.0000
 12 C      6.0217     6.0000    -0.0217     3.6237     3.6237    -0.0000
 13 H      0.8593     1.0000     0.1407     0.9368     0.9368    -0.0000
 14 H      0.8419     1.0000     0.1581     0.9361     0.9361    -0.0000
 15 O      8.5237     8.0000    -0.5237     1.7405     1.7405     0.0000
 16 C      5.9402     6.0000     0.0598     3.5864     3.5864     0.0000
 17 C      5.9098     6.0000     0.0902     3.6280     3.6280    -0.0000
 18 C      6.3019     6.0000    -0.3019     3.6981     3.6981     0.0000
 19 C      6.0306     6.0000    -0.0306     3.6649     3.6649    -0.0000
 20 O      8.5269     8.0000    -0.5269     1.7613     1.7613    -0.0000
 21 H      0.8250     1.0000     0.1750     0.9404     0.9404    -0.0000
 22 O      8.6061     8.0000    -0.6061     1.7421     1.7421    -0.0000
 23 H      0.8301     1.0000     0.1699     0.9405     0.9405    -0.0000
 24 H      0.8404     1.0000     0.1596     0.9403     0.9403     0.0000
 25 H      0.8529     1.0000     0.1471     0.9350     0.9350    -0.0000
 26 H      0.8533     1.0000     0.1467     0.9270     0.9270    -0.0000
 27 H      0.8547     1.0000     0.1453     0.9286     0.9286     0.0000
 28 H      0.6377     1.0000     0.3623     0.8337     0.8337    -0.0000

  Mayer bond orders larger than 0.100000
B(  0-C ,  1-C ) :   0.9507 B(  0-C ,  4-O ) :   0.9010 B(  0-C ,  5-H ) :   0.9202 
B(  0-C , 15-O ) :   0.8613 B(  1-C ,  2-C ) :   0.9555 B(  1-C ,  6-H ) :   0.9397 
B(  1-C ,  7-H ) :   0.9360 B(  2-C ,  3-C ) :   0.9554 B(  2-C ,  8-H ) :   0.9450 
B(  2-C ,  9-H ) :   0.9434 B(  3-C ,  4-O ) :   0.8326 B(  3-C , 10-H ) :   0.9320 
B(  3-C , 11-H ) :   0.9409 B( 12-C , 13-H ) :   0.9371 B( 12-C , 14-H ) :   0.9193 
B( 12-C , 15-O ) :   0.8259 B( 12-C , 16-C ) :   0.8915 B( 16-C , 17-C ) :   0.9131 
B( 16-C , 20-O ) :   0.8387 B( 16-C , 21-H ) :   0.9184 B( 17-C , 18-C ) :   0.9123 
B( 17-C , 22-O ) :   0.8886 B( 17-C , 23-H ) :   0.9254 B( 18-C , 19-C ) :   0.9422 
B( 18-C , 24-H ) :   0.9384 B( 18-C , 25-H ) :   0.9345 B( 19-C , 20-O ) :   0.8448 
B( 19-C , 26-H ) :   0.9351 B( 19-C , 27-H ) :   0.9382 B( 22-O , 28-H ) :   0.7966 


-------
TIMINGS
-------

Total SCF time: 0 days 0 hours 1 min 10 sec 

Total time                  ....      70.474 sec
Sum of individual times     ....      63.296 sec  ( 89.8%)

Fock matrix formation       ....      58.245 sec  ( 82.6%)
  XC integration            ....       5.926 sec  ( 10.2% of F)
    Basis function eval.    ....       1.798 sec  ( 30.3% of XC)
    Density eval.           ....       0.944 sec  ( 15.9% of XC)
    XC-Functional eval.     ....       0.409 sec  (  6.9% of XC)
    XC-Potential eval.      ....       1.006 sec  ( 17.0% of XC)
Diagonalization             ....       0.009 sec  (  0.0%)
Density matrix formation    ....       0.003 sec  (  0.0%)
Population analysis         ....       0.051 sec  (  0.1%)
Initial guess               ....       0.010 sec  (  0.0%)
Orbital Transformation      ....       0.000 sec  (  0.0%)
Orbital Orthonormalization  ....       0.006 sec  (  0.0%)
DIIS solution               ....       0.002 sec  (  0.0%)
SOSCF solution              ....       0.046 sec  (  0.1%)
Grid generation             ....       4.930 sec  (  7.0%)

-------------------------   --------------------
FINAL SINGLE POINT ENERGY      -652.870590873428
-------------------------   --------------------

                                *** OPTIMIZATION RUN DONE ***

                            ***************************************
                            *     ORCA property calculations      *
                            ***************************************

                                    ---------------------
                                    Active property flags
                                    ---------------------
   (+) Dipole Moment


------------------------------------------------------------------------------
                       ORCA ELECTRIC PROPERTIES CALCULATION
------------------------------------------------------------------------------

Dipole Moment Calculation                       ... on
Quadrupole Moment Calculation                   ... off
Polarizability Calculation                      ... off
GBWName                                         ... project_8050/ensemble_300_105.gbw
Electron density file                           ... project_8050/ensemble_300_105.scfp
The origin for moment calculation is the CENTER OF MASS  = (-43.423030, 49.104971 90.181236)

-------------
DIPOLE MOMENT
-------------
                                X             Y             Z
Electronic contribution:     -0.04748      -2.98731       1.26310
Nuclear contribution   :     -0.03437       3.27985      -1.87296
                        -----------------------------------------
Total Dipole Moment    :     -0.08185       0.29254      -0.60986
                        -----------------------------------------
Magnitude (a.u.)       :      0.68132
Magnitude (Debye)      :      1.73179



--------------------
Rotational spectrum 
--------------------
 
Rotational constants in cm-1:     0.052341     0.014662     0.013722 
Rotational constants in MHz :  1569.134818   439.558444   411.372075 

 Dipole components along the rotational axes: 
x,y,z [a.u.] :    -0.206846     0.253732     0.597527 
x,y,z [Debye]:    -0.525761     0.644935     1.518793 

 

Timings for individual modules:

Sum of individual times         ...     1652.029 sec (=  27.534 min)
GTO integral calculation        ...        4.930 sec (=   0.082 min)   0.3 %
SCF iterations                  ...     1306.864 sec (=  21.781 min)  79.1 %
SCF Gradient evaluation         ...      337.608 sec (=   5.627 min)  20.4 %
Geometry relaxation             ...        2.627 sec (=   0.044 min)   0.2 %
                             ****ORCA TERMINATED NORMALLY****
TOTAL RUN TIME: 0 days 0 hours 27 minutes 56 seconds 732 msec
