
                                 *****************
                                 * O   R   C   A *
                                 *****************

           --- An Ab Initio, DFT and Semiempirical electronic structure package ---

                  #######################################################
                  #                        -***-                        #
                  #          Department of theory and spectroscopy      #
                  #               Directorship: Frank Neese             #
                  #        Max Planck Institute fuer Kohlenforschung    #
                  #                Kaiser Wilhelm Platz 1               #
                  #                 D-45470 Muelheim/Ruhr               #
                  #                      Germany                        #
                  #                                                     #
                  #                  All rights reserved                #
                  #                        -***-                        #
                  #######################################################


                         Program Version 4.2.0 -  RELEASE  -


 With contributions from (in alphabetic order):
   Daniel Aravena         : Magnetic Suceptibility
   Michael Atanasov       : Ab Initio Ligand Field Theory (pilot matlab implementation)
   Alexander A. Auer      : GIAO ZORA, VPT2
   Ute Becker             : Parallelization
   Giovanni Bistoni       : ED, misc. LED, open-shell LED, HFLED
   Martin Brehm           : Molecular dynamics
   Dmytro Bykov           : SCF Hessian
   Vijay G. Chilkuri      : MRCI spin determinant printing, contributions to CSF-ICE
   Dipayan Datta          : RHF DLPNO-CCSD density
   Achintya Kumar Dutta   : EOM-CC, STEOM-CC
   Dmitry Ganyushin       : Spin-Orbit,Spin-Spin,Magnetic field MRCI
   Miquel Garcia          : C-PCM Hessian, Gaussian charge scheme
   Yang Guo               : DLPNO-NEVPT2, CIM, IAO-localization
   Andreas Hansen         : Spin unrestricted coupled pair/coupled cluster methods
   Benjamin Helmich-Paris : CASSCF linear response (MC-RPA)
   Lee Huntington         : MR-EOM, pCC
   Robert Izsak           : Overlap fitted RIJCOSX, COSX-SCS-MP3, EOM
   Christian Kollmar      : KDIIS, OOCD, Brueckner-CCSD(T), CCSD density
   Simone Kossmann        : Meta GGA functionals, TD-DFT gradient, OOMP2, MP2 Hessian
   Martin Krupicka        : AUTO-CI
   Lucas Lang             : DCDCAS
   Dagmar Lenk            : GEPOL surface, SMD
   Dimitrios Liakos       : Extrapolation schemes; Compound Job, initial MDCI parallelization
   Dimitrios Manganas     : Further ROCIS development; embedding schemes
   Dimitrios Pantazis     : SARC Basis sets
   Taras Petrenko         : DFT Hessian,TD-DFT gradient, ASA, ECA, R-Raman, ABS, FL, XAS/XES, NRVS
   Peter Pinski           : DLPNO-MP2, DLPNO-MP2 Gradient
   Christoph Reimann      : Effective Core Potentials
   Marius Retegan         : Local ZFS, SOC
   Christoph Riplinger    : Optimizer, TS searches, QM/MM, DLPNO-CCSD(T), (RO)-DLPNO pert. Triples
   Tobias Risthaus        : Range-separated hybrids, TD-DFT gradient, RPA, STAB
   Michael Roemelt        : Original ROCIS implementation
   Masaaki Saitow         : Open-shell DLPNO-CCSD energy and density
   Barbara Sandhoefer     : DKH picture change effects
   Avijit Sen             : IP-ROCIS
   Kantharuban Sivalingam : CASSCF convergence, NEVPT2, FIC-MRCI
   Bernardo de Souza      : ESD, SOC TD-DFT
   Georgi Stoychev        : AutoAux, RI-MP2 NMR
   Willem Van den Heuvel  : Paramagnetic NMR
   Boris Wezisla          : Elementary symmetry handling
   Frank Wennmohs         : Technical directorship


 We gratefully acknowledge several colleagues who have allowed us to
 interface, adapt or use parts of their codes:
   Stefan Grimme, W. Hujo, H. Kruse,             : VdW corrections, initial TS optimization,
                  C. Bannwarth                     DFT functionals, gCP, sTDA/sTD-DF
   Ed Valeev, F. Pavosevic, A. Kumar             : LibInt (2-el integral package), F12 methods
   Garnet Chan, S. Sharma, J. Yang, R. Olivares  : DMRG
   Ulf Ekstrom                                   : XCFun DFT Library
   Mihaly Kallay                                 : mrcc  (arbitrary order and MRCC methods)
   Andreas Klamt, Michael Diedenhofen            : otool_cosmo (COSMO solvation model)
   Jiri Pittner, Ondrej Demel                    : Mk-CCSD
   Frank Weinhold                                : gennbo (NPA and NBO analysis)
   Christopher J. Cramer and Donald G. Truhlar   : smd solvation model
   Lars Goerigk                                  : TD-DFT with DH, B97 family of functionals
   V. Asgeirsson, H. Jonsson                     : NEB implementation
   FAccTs GmbH                                   : IRC, NEB, NEB-TS, Multilevel, MM, QM/MM, CI optimization
   S Lehtola, MJT Oliveira, MAL Marques          : LibXC Library


 Your calculation uses the libint2 library for the computation of 2-el integrals
 For citations please refer to: http://libint.valeyev.net

 Your ORCA version has been built with support for libXC version: 4.2.3
 For citations please refer to: https://tddft.org/programs/libxc/

 This ORCA versions uses:
   CBLAS   interface :  Fast vector & matrix operations
   LAPACKE interface :  Fast linear algebra routines
   SCALAPACK package :  Parallel linear algebra routines


----- Orbital basis set information -----
Your calculation utilizes the basis: 6-31G
   H-He, Li-Ne : W. J. Hehre, R. Ditchfield and J.A. Pople, J. Chem. Phys. 56, 2257 (1972).
                 Note: He and Ne are unpublished basis sets taken from the Gaussian program.
                 Note: Li and B from J. D. Dill and J. A. Pople, J. Chem. Phys. 62, 2921 (1975).
   Na - Ar     : M. M. Francl, W. J. Pietro, W. J. Hehre, J. S. Binkley, M. S. Gordon, 
                 D. J. DeFrees and J. A. Pople, J. Chem. Phys. 77, 3654 (1982).
   K - Zn      : V. A. Rassolov, J. A. Pople, M. A. Ratner, and T. L. Windus, J. Chem. Phys. 109, 1223 (1998).

================================================================================
                                        WARNINGS
                       Please study these warnings very carefully!
================================================================================


WARNING: Geometry Optimization
  ===> : Switching off AutoStart
         For restart on a previous wavefunction, please use MOREAD

INFO   : the flag for use of LIBINT has been found!

================================================================================
                                       INPUT FILE
================================================================================
NAME = project_8053/ensemble_330_180.inp
|  1> # Test redundant internal optimization
|  2> #
|  3> ! RKS B3LYP  Opt TightSCF SmallPrint
|  4> 
|  5> %basis
|  6>         Basis "6-31G"
|  7> end
|  8> 
|  9> %geom
| 10> Constraints
| 11> { D 4  0  15  12  330.0   C } # D for Dihedral angle
| 12> { D 0  15  12  16  180.0   C } # D for Dihedral angle
| 13> { D 0  4  3  2   C } # D for Dihedral angle
| 14> { D 4  3  2  1   C } # D for Dihedral angle
| 15> { D 3  2  1  0   C } # D for Dihedral angle
| 16> { D 2  1  0  4   C } # D for Dihedral angle
| 17> { D 1  0  4  3   C } # D for Dihedral angle
| 18> { D 16  20  19  18   C } # D for Dihedral angle
| 19> { D 20  19  18  17   C } # D for Dihedral angle
| 20> { D 19  18  17  16   C } # D for Dihedral angle
| 21> { D 18  17  16  20   C } # D for Dihedral angle
| 22> { D 17  16  20  19   C } # D for Dihedral angle
| 23> { D 15  12  16  20   C } # D for Dihedral angle
| 24> end
| 25> end
| 26> 
| 27> 
| 28> #%pal 
| 29> #nprocs 8
| 30> #end
| 31> 
| 32> * xyz 0 1
| 33> C  -21.048   26.222   46.251
| 34> C  -20.361   27.558   45.944
| 35> C  -20.329   28.222   47.341
| 36> C  -20.110   27.022   48.296
| 37> O  -20.473   25.807   47.535
| 38> H  -20.833   25.428   45.533
| 39> H  -19.344   27.382   45.576
| 40> H  -20.898   28.157   45.201
| 41> H  -19.543   28.978   47.434
| 42> H  -21.289   28.710   47.548
| 43> H  -20.733   27.082   49.195
| 44> H  -19.064   26.913   48.597
| 45> C  -23.271   25.476   47.424
| 46> H  -23.084   24.426   47.163
| 47> H  -22.857   25.659   48.424
| 48> O  -22.586   26.394   46.375
| 49> C  -24.807   25.694   47.501
| 50> C  -25.432   24.858   48.623
| 51> C  -25.094   25.706   49.873
| 52> C  -25.191   27.160   49.347
| 53> O  -25.110   27.080   47.873
| 54> H  -25.243   25.524   46.515
| 55> H  -26.517   24.791   48.484
| 56> O  -24.860   23.416   48.701
| 57> H  -25.773   25.519   50.710
| 58> H  -24.075   25.485   50.212
| 59> H  -24.378   27.795   49.717
| 60> H  -26.147   27.630   49.593
| 61> H  -23.774   23.457   48.842
| 62> *
| 63> 
| 64>                          ****END OF INPUT****
================================================================================

                       *****************************
                       * Geometry Optimization Run *
                       *****************************

Geometry optimization settings:
Update method            Update   .... BFGS
Choice of coordinates    CoordSys .... Z-matrix Internals
Initial Hessian          InHess   .... Almoef's Model

Convergence Tolerances:
Energy Change            TolE     ....  5.0000e-06 Eh
Max. Gradient            TolMAXG  ....  3.0000e-04 Eh/bohr
RMS Gradient             TolRMSG  ....  1.0000e-04 Eh/bohr
Max. Displacement        TolMAXD  ....  4.0000e-03 bohr
RMS Displacement         TolRMSD  ....  2.0000e-03 bohr
Strict Convergence                ....  False
------------------------------------------------------------------------------
                        ORCA OPTIMIZATION COORDINATE SETUP
------------------------------------------------------------------------------

The optimization will be done in new redundant internal coordinates
Making redundant internal coordinates   ...  (new redundants) done
Evaluating the initial hessian          ...  (Almloef) done
Evaluating the coordinates              ...  done
Calculating the B-matrix                .... done
Calculating the G-matrix                .... done
Diagonalizing the G-matrix              .... done
Imposing constraints:
 Iter   0:  RMS(Cart)=    0.0001743384 RMS(Int)=    0.0000495294
 Iter   1:  RMS(Cart)=    0.0000863507 RMS(Int)=    0.0000268780
 Iter   2:  RMS(Cart)=    0.0000447305 RMS(Int)=    0.0000160064
 Iter   3:  RMS(Cart)=    0.0000244637 RMS(Int)=    0.0000104543
 Iter   4:  RMS(Cart)=    0.0000141841 RMS(Int)=    0.0000074078
 Iter   5:  RMS(Cart)=    0.0000086989 RMS(Int)=    0.0000056464
 Iter   6:  RMS(Cart)=    0.0000056092 RMS(Int)=    0.0000046042
 Iter   7:  RMS(Cart)=    0.0000037795 RMS(Int)=    0.0000039819
 Iter   8:  RMS(Cart)=    0.0000026501 RMS(Int)=    0.0000036028
 Iter   9:  RMS(Cart)=    0.0000019306 RMS(Int)=    0.0000033602
 Iter  10:  RMS(Cart)=    0.0000014613 RMS(Int)=    0.0000031922
 Iter  11:  RMS(Cart)=    0.0000011497 RMS(Int)=    0.0000030645
 Iter  12:  RMS(Cart)=    0.0000009394 RMS(Int)=    0.0000029590
 Iter  13:  RMS(Cart)=    0.0000007954 RMS(Int)=    0.0000028659
 Iter  14:  RMS(Cart)=    0.0000006948 RMS(Int)=    0.0000027805
 Iter  15:  RMS(Cart)=    0.0000006229 RMS(Int)=    0.0000027001
 Iter  16:  RMS(Cart)=    0.0000005702 RMS(Int)=    0.0000026235
 Iter  17:  RMS(Cart)=    0.0000005302 RMS(Int)=    0.0000025498
 Iter  18:  RMS(Cart)=    0.0000004990 RMS(Int)=    0.0000024787
 Iter  19:  RMS(Cart)=    0.0000004737 RMS(Int)=    0.0000024100
 Iter  20:  RMS(Cart)=    0.0000004526 RMS(Int)=    0.0000023435
 Iter  21:  RMS(Cart)=    0.0000004344 RMS(Int)=    0.0000022791
 Iter  22:  RMS(Cart)=    0.0000004184 RMS(Int)=    0.0000022166
 Iter  23:  RMS(Cart)=    0.0000004040 RMS(Int)=    0.0000021561
 Iter  24:  RMS(Cart)=    0.0000003907 RMS(Int)=    0.0000020975
 Iter  25:  RMS(Cart)=    0.0000003784 RMS(Int)=    0.0000020406
 Iter  26:  RMS(Cart)=    0.0000003668 RMS(Int)=    0.0000019855
 Iter  27:  RMS(Cart)=    0.0000003559 RMS(Int)=    0.0000019321
 Iter  28:  RMS(Cart)=    0.0000003454 RMS(Int)=    0.0000018803
 Iter  29:  RMS(Cart)=    0.0000003355 RMS(Int)=    0.0000018300
 Iter  30:  RMS(Cart)=    0.0000003258 RMS(Int)=    0.0000017813
 Iter  31:  RMS(Cart)=    0.0000003166 RMS(Int)=    0.0000017340
 Iter  32:  RMS(Cart)=    0.0000003077 RMS(Int)=    0.0000016882
 Iter  33:  RMS(Cart)=    0.0000002991 RMS(Int)=    0.0000016437
 Iter  34:  RMS(Cart)=    0.0000002907 RMS(Int)=    0.0000016005
 Iter  35:  RMS(Cart)=    0.0000002827 RMS(Int)=    0.0000015586
 Iter  36:  RMS(Cart)=    0.0000002749 RMS(Int)=    0.0000015180
 Iter  37:  RMS(Cart)=    0.0000002673 RMS(Int)=    0.0000014786
 Iter  38:  RMS(Cart)=    0.0000002600 RMS(Int)=    0.0000014404
 Iter  39:  RMS(Cart)=    0.0000002529 RMS(Int)=    0.0000014032
 Iter  40:  RMS(Cart)=    0.0000002460 RMS(Int)=    0.0000013672
 Iter  41:  RMS(Cart)=    0.0000002393 RMS(Int)=    0.0000013322
 Iter  42:  RMS(Cart)=    0.0000002328 RMS(Int)=    0.0000012983
 Iter  43:  RMS(Cart)=    0.0000002265 RMS(Int)=    0.0000012653
 Iter  44:  RMS(Cart)=    0.0000002204 RMS(Int)=    0.0000012333
 Iter  45:  RMS(Cart)=    0.0000002145 RMS(Int)=    0.0000012022
 Iter  46:  RMS(Cart)=    0.0000002088 RMS(Int)=    0.0000011721
 Iter  47:  RMS(Cart)=    0.0000002032 RMS(Int)=    0.0000011428
 Iter  48:  RMS(Cart)=    0.0000001978 RMS(Int)=    0.0000011143
 Iter  49:  RMS(Cart)=    0.0000001926 RMS(Int)=    0.0000010867
 Iter  50:  RMS(Cart)=    0.0000001875 RMS(Int)=    0.0000010598
 Iter  51:  RMS(Cart)=    0.0000001825 RMS(Int)=    0.0000010338
 Iter  52:  RMS(Cart)=    0.0000001777 RMS(Int)=    0.0000010084
 Iter  53:  RMS(Cart)=    0.0000001731 RMS(Int)=    0.0000009838
 Iter  54:  RMS(Cart)=    0.0000001686 RMS(Int)=    0.0000009599
 Iter  55:  RMS(Cart)=    0.0000001642 RMS(Int)=    0.0000009367
 Iter  56:  RMS(Cart)=    0.0000001599 RMS(Int)=    0.0000009141
 Iter  57:  RMS(Cart)=    0.0000001558 RMS(Int)=    0.0000008922
 Iter  58:  RMS(Cart)=    0.0000001518 RMS(Int)=    0.0000008709
 Iter  59:  RMS(Cart)=    0.0000001479 RMS(Int)=    0.0000008502
 Iter  60:  RMS(Cart)=    0.0000001441 RMS(Int)=    0.0000008301
 Iter  61:  RMS(Cart)=    0.0000001404 RMS(Int)=    0.0000008105
 Iter  62:  RMS(Cart)=    0.0000001368 RMS(Int)=    0.0000007915
 Iter  63:  RMS(Cart)=    0.0000001333 RMS(Int)=    0.0000007730
 Iter  64:  RMS(Cart)=    0.0000001299 RMS(Int)=    0.0000007550
 Iter  65:  RMS(Cart)=    0.0000001267 RMS(Int)=    0.0000007375
 Iter  66:  RMS(Cart)=    0.0000001235 RMS(Int)=    0.0000007205
 Iter  67:  RMS(Cart)=    0.0000001204 RMS(Int)=    0.0000007040
 Iter  68:  RMS(Cart)=    0.0000001173 RMS(Int)=    0.0000006879
 Iter  69:  RMS(Cart)=    0.0000001144 RMS(Int)=    0.0000006722
 Iter  70:  RMS(Cart)=    0.0000001116 RMS(Int)=    0.0000006570
 Iter  71:  RMS(Cart)=    0.0000001088 RMS(Int)=    0.0000006422
 Iter  72:  RMS(Cart)=    0.0000001061 RMS(Int)=    0.0000006278
 Iter  73:  RMS(Cart)=    0.0000001035 RMS(Int)=    0.0000006138
 Iter  74:  RMS(Cart)=    0.0000001009 RMS(Int)=    0.0000006002
 Iter  75:  RMS(Cart)=    0.0000000985 RMS(Int)=    0.0000005870
 Iter  76:  RMS(Cart)=    0.0000000961 RMS(Int)=    0.0000005741
 Iter  77:  RMS(Cart)=    0.0000000937 RMS(Int)=    0.0000005615
 Iter  78:  RMS(Cart)=    0.0000000914 RMS(Int)=    0.0000005493
 Iter  79:  RMS(Cart)=    0.0000000892 RMS(Int)=    0.0000005374
 Iter  80:  RMS(Cart)=    0.0000000871 RMS(Int)=    0.0000005258
 Iter  81:  RMS(Cart)=    0.0000000850 RMS(Int)=    0.0000005145
 Iter  82:  RMS(Cart)=    0.0000000829 RMS(Int)=    0.0000005036
 Iter  83:  RMS(Cart)=    0.0000000810 RMS(Int)=    0.0000004929
 Iter  84:  RMS(Cart)=    0.0000000790 RMS(Int)=    0.0000004825
 Iter  85:  RMS(Cart)=    0.0000000772 RMS(Int)=    0.0000004724
 Iter  86:  RMS(Cart)=    0.0000000753 RMS(Int)=    0.0000004625
 Iter  87:  RMS(Cart)=    0.0000000735 RMS(Int)=    0.0000004529
 Iter  88:  RMS(Cart)=    0.0000000718 RMS(Int)=    0.0000004435
 Iter  89:  RMS(Cart)=    0.0000000701 RMS(Int)=    0.0000004344
 Iter  90:  RMS(Cart)=    0.0000000685 RMS(Int)=    0.0000004255
 Iter  91:  RMS(Cart)=    0.0000000669 RMS(Int)=    0.0000004169
 Iter  92:  RMS(Cart)=    0.0000000653 RMS(Int)=    0.0000004084
 Iter  93:  RMS(Cart)=    0.0000000638 RMS(Int)=    0.0000004002
 Iter  94:  RMS(Cart)=    0.0000000623 RMS(Int)=    0.0000003922
 Iter  95:  RMS(Cart)=    0.0000000609 RMS(Int)=    0.0000003844
 Iter  96:  RMS(Cart)=    0.0000000595 RMS(Int)=    0.0000003768
 Iter  97:  RMS(Cart)=    0.0000000582 RMS(Int)=    0.0000003694
 Iter  98:  RMS(Cart)=    0.0000000568 RMS(Int)=    0.0000003622
 Iter  99:  RMS(Cart)=    0.0000000555 RMS(Int)=    0.0000003551
 RMS(Cart) too big - taking linear step, building new B-matrix and trying again
Imposing constraints:
 Iter   0:  RMS(Cart)=    0.0000863519 RMS(Int)=    0.0000268779
 Iter   1:  RMS(Cart)=    0.0000447311 RMS(Int)=    0.0000160062
 Iter   2:  RMS(Cart)=    0.0000244640 RMS(Int)=    0.0000104540
 Iter   3:  RMS(Cart)=    0.0000141841 RMS(Int)=    0.0000074075
 Iter   4:  RMS(Cart)=    0.0000086989 RMS(Int)=    0.0000056460
 Iter   5:  RMS(Cart)=    0.0000056092 RMS(Int)=    0.0000046038
 Iter   6:  RMS(Cart)=    0.0000037793 RMS(Int)=    0.0000039815
 Iter   7:  RMS(Cart)=    0.0000026500 RMS(Int)=    0.0000036024
 Iter   8:  RMS(Cart)=    0.0000019305 RMS(Int)=    0.0000033598
 Iter   9:  RMS(Cart)=    0.0000014612 RMS(Int)=    0.0000031918
 Iter  10:  RMS(Cart)=    0.0000011495 RMS(Int)=    0.0000030642
 Iter  11:  RMS(Cart)=    0.0000009393 RMS(Int)=    0.0000029587
 Iter  12:  RMS(Cart)=    0.0000007953 RMS(Int)=    0.0000028656
 Iter  13:  RMS(Cart)=    0.0000006947 RMS(Int)=    0.0000027802
 Iter  14:  RMS(Cart)=    0.0000006228 RMS(Int)=    0.0000026999
 Iter  15:  RMS(Cart)=    0.0000005701 RMS(Int)=    0.0000026232
 Iter  16:  RMS(Cart)=    0.0000005302 RMS(Int)=    0.0000025496
 Iter  17:  RMS(Cart)=    0.0000004989 RMS(Int)=    0.0000024785
 Iter  18:  RMS(Cart)=    0.0000004736 RMS(Int)=    0.0000024098
 Iter  19:  RMS(Cart)=    0.0000004525 RMS(Int)=    0.0000023433
 Iter  20:  RMS(Cart)=    0.0000004344 RMS(Int)=    0.0000022789
 Iter  21:  RMS(Cart)=    0.0000004183 RMS(Int)=    0.0000022165
 Iter  22:  RMS(Cart)=    0.0000004039 RMS(Int)=    0.0000021560
 Iter  23:  RMS(Cart)=    0.0000003907 RMS(Int)=    0.0000020974
 Iter  24:  RMS(Cart)=    0.0000003784 RMS(Int)=    0.0000020405
 Iter  25:  RMS(Cart)=    0.0000003668 RMS(Int)=    0.0000019854
 Iter  26:  RMS(Cart)=    0.0000003558 RMS(Int)=    0.0000019320
 Iter  27:  RMS(Cart)=    0.0000003454 RMS(Int)=    0.0000018802
 Iter  28:  RMS(Cart)=    0.0000003354 RMS(Int)=    0.0000018300
 Iter  29:  RMS(Cart)=    0.0000003258 RMS(Int)=    0.0000017812
 Iter  30:  RMS(Cart)=    0.0000003166 RMS(Int)=    0.0000017340
 Iter  31:  RMS(Cart)=    0.0000003076 RMS(Int)=    0.0000016881
 Iter  32:  RMS(Cart)=    0.0000002990 RMS(Int)=    0.0000016436
 Iter  33:  RMS(Cart)=    0.0000002907 RMS(Int)=    0.0000016005
 Iter  34:  RMS(Cart)=    0.0000002826 RMS(Int)=    0.0000015586
 Iter  35:  RMS(Cart)=    0.0000002748 RMS(Int)=    0.0000015180
 Iter  36:  RMS(Cart)=    0.0000002673 RMS(Int)=    0.0000014786
 Iter  37:  RMS(Cart)=    0.0000002599 RMS(Int)=    0.0000014404
 Iter  38:  RMS(Cart)=    0.0000002528 RMS(Int)=    0.0000014033
 Iter  39:  RMS(Cart)=    0.0000002459 RMS(Int)=    0.0000013672
 Iter  40:  RMS(Cart)=    0.0000002393 RMS(Int)=    0.0000013323
 Iter  41:  RMS(Cart)=    0.0000002328 RMS(Int)=    0.0000012983
 Iter  42:  RMS(Cart)=    0.0000002265 RMS(Int)=    0.0000012654
 Iter  43:  RMS(Cart)=    0.0000002204 RMS(Int)=    0.0000012334
 Iter  44:  RMS(Cart)=    0.0000002145 RMS(Int)=    0.0000012023
 Iter  45:  RMS(Cart)=    0.0000002088 RMS(Int)=    0.0000011721
 Iter  46:  RMS(Cart)=    0.0000002032 RMS(Int)=    0.0000011428
 Iter  47:  RMS(Cart)=    0.0000001978 RMS(Int)=    0.0000011144
 Iter  48:  RMS(Cart)=    0.0000001926 RMS(Int)=    0.0000010868
 Iter  49:  RMS(Cart)=    0.0000001875 RMS(Int)=    0.0000010599
 Iter  50:  RMS(Cart)=    0.0000001825 RMS(Int)=    0.0000010339
 Iter  51:  RMS(Cart)=    0.0000001777 RMS(Int)=    0.0000010086
 Iter  52:  RMS(Cart)=    0.0000001731 RMS(Int)=    0.0000009840
CONVERGED
Small eigenvalue found = 7.309e-03
Small eigenvalue found = 1.216e-02
Small eigenvalue found = 1.650e-02
The first mode is                       ....   91
The number of degrees of freedom        ....   81
Storing new coordinates                 .... done

    -----------------------------------------------------------------
                    Redundant Internal Coordinates


    -----------------------------------------------------------------
         Definition                    Initial Value    Approx d2E/dq
    -----------------------------------------------------------------
      1. B(C   1,C   0)                  1.5333         0.369027   
      2. B(C   2,C   1)                  1.5471         0.350825   
      3. B(C   3,C   2)                  1.5492         0.348147   
      4. B(O   4,C   0)                  1.4668         0.422031   
      5. B(O   4,C   3)                  1.4789         0.403699   
      6. B(H   5,C   0)                  1.0919         0.357632   
      7. B(H   6,C   1)                  1.0958         0.352561   
      8. B(H   7,C   1)                  1.0951         0.353431   
      9. B(H   8,C   2)                  1.0945         0.354166   
     10. B(H   9,C   2)                  1.0966         0.351438   
     11. B(H  10,C   3)                  1.0954         0.353010   
     12. B(H  11,C   3)                  1.0939         0.354989   
     13. B(H  13,C  12)                  1.0980         0.349679   
     14. B(H  14,C  12)                  1.0977         0.350092   
     15. B(O  15,C   0)                  1.5525         0.307993   
     16. B(O  15,C  12)                  1.5532         0.307285   
     17. B(C  16,C  12)                  1.5533         0.342925   
     18. B(C  17,C  16)                  1.5325         0.370227   
     19. B(C  18,C  17)                  1.5479         0.349860   
     20. B(C  19,C  18)                  1.5493         0.348058   
     21. B(O  20,C  16)                  1.4667         0.422198   
     22. B(O  20,C  19)                  1.4784         0.404441   
     23. B(H  21,C  16)                  1.0914         0.358230   
     24. B(H  22,C  17)                  1.0959         0.352356   
     25. B(O  23,C  17)                  1.5533         0.307183   
     26. B(H  24,C  18)                  1.0939         0.355000   
     27. B(H  25,C  18)                  1.0964         0.351715   
     28. B(H  26,C  19)                  1.0959         0.352322   
     29. B(H  27,C  19)                  1.0933         0.355733   
     30. B(H  28,O  23)                  1.0959         0.315628   
     31. A(O   4,C   0,H   5)          107.0218         0.328541   
     32. A(C   1,C   0,O  15)          111.3017         0.348740   
     33. A(C   1,C   0,O   4)          104.2484         0.367935   
     34. A(O   4,C   0,O  15)          110.4735         0.354548   
     35. A(C   1,C   0,H   5)          114.4374         0.323302   
     36. A(H   5,C   0,O  15)          109.1580         0.312058   
     37. A(C   0,C   1,C   2)          101.6797         0.358729   
     38. A(C   2,C   1,H   7)          112.8318         0.320016   
     39. A(C   2,C   1,H   6)          110.6709         0.319888   
     40. A(C   0,C   1,H   6)          110.0676         0.322546   
     41. A(H   6,C   1,H   7)          108.3681         0.289027   
     42. A(C   0,C   1,H   7)          113.1243         0.322677   
     43. A(C   1,C   2,H   8)          112.8319         0.320125   
     44. A(C   1,C   2,C   3)          103.1266         0.355196   
     45. A(C   1,C   2,H   9)          110.0801         0.319721   
     46. A(C   3,C   2,H   9)          110.6152         0.319321   
     47. A(C   3,C   2,H   8)          112.4039         0.319725   
     48. A(H   8,C   2,H   9)          107.7728         0.288977   
     49. A(O   4,C   3,H  10)          109.1298         0.325449   
     50. A(C   2,C   3,H  10)          112.5253         0.319554   
     51. A(C   2,C   3,O   4)          106.5276         0.361529   
     52. A(O   4,C   3,H  11)          107.1237         0.325748   
     53. A(H  10,C   3,H  11)          108.8728         0.289284   
     54. A(C   2,C   3,H  11)          112.4566         0.319846   
     55. A(C   0,O   4,C   3)          108.3148         0.371320   
     56. A(H  14,C  12,C  16)          107.7145         0.318336   
     57. A(H  13,C  12,H  14)          108.1647         0.288227   
     58. A(H  13,C  12,O  15)          109.2401         0.310809   
     59. A(H  14,C  12,O  15)          110.5146         0.310869   
     60. A(O  15,C  12,C  16)          112.7460         0.344330   
     61. A(H  13,C  12,C  16)          108.3329         0.318274   
     62. A(C   0,O  15,C  12)          115.1736         0.336146   
     63. A(C  12,C  16,C  17)          111.2858         0.357539   
     64. A(C  12,C  16,O  20)          110.4559         0.363367   
     65. A(C  17,C  16,O  20)          104.2146         0.368165   
     66. A(C  12,C  16,H  21)          109.1715         0.319531   
     67. A(C  17,C  16,H  21)          114.4273         0.323563   
     68. A(O  20,C  16,H  21)          107.0863         0.328653   
     69. A(C  16,C  17,C  18)          101.7326         0.358759   
     70. A(C  16,C  17,H  22)          110.1371         0.322687   
     71. A(C  18,C  17,H  22)          110.6167         0.319714   
     72. A(C  16,C  17,O  23)          113.1430         0.348776   
     73. A(C  18,C  17,O  23)          112.8076         0.345471   
     74. A(H  22,C  17,O  23)          108.3126         0.311176   
     75. A(C  17,C  18,C  19)          103.0798         0.355015   
     76. A(C  17,C  18,H  24)          112.8751         0.320104   
     77. A(C  19,C  18,H  24)          112.4182         0.319834   
     78. A(C  17,C  18,H  25)          110.0118         0.319618   
     79. A(C  19,C  18,H  25)          110.6305         0.319349   
     80. A(H  24,C  18,H  25)          107.8098         0.289119   
     81. A(C  18,C  19,O  20)          106.5167         0.361627   
     82. A(C  18,C  19,H  26)          112.5018         0.319439   
     83. A(O  20,C  19,H  26)          109.1059         0.325442   
     84. A(C  18,C  19,H  27)          112.4455         0.319942   
     85. A(O  20,C  19,H  27)          107.1877         0.325959   
     86. A(H  26,C  19,H  27)          108.8815         0.289290   
     87. A(C  16,O  20,C  19)          108.3813         0.371463   
     88. A(C  17,O  23,H  28)          109.6738         0.303183   
     89. D(H   7,C   1,C   0,H   5)     82.1516         0.010890   
     90. D(C   2,C   1,C   0,O  15)     79.0867         0.010890   
     91. D(H   7,C   1,C   0,O  15)    -42.1869         0.010890   
     92. D(H   6,C   1,C   0,O   4)     77.3260         0.010890   
     93. D(H   6,C   1,C   0,O  15)   -163.5727         0.010890   
     94. D(H   6,C   1,C   0,H   5)    -39.2342         0.010890   
     95. D(H   7,C   1,C   0,O   4)   -161.2881         0.010890   
     96. D(C   2,C   1,C   0,O   4)    -40.0145         0.010890 C 
     97. D(C   2,C   1,C   0,H   5)   -156.5748         0.010890   
     98. D(H   9,C   2,C   1,H   6)    160.0776         0.009912   
     99. D(H   8,C   2,C   1,C   0)    156.5478         0.009912   
    100. D(H   8,C   2,C   1,H   6)     39.6446         0.009912   
    101. D(C   3,C   2,C   1,C   0)     35.0270         0.009912 C 
    102. D(H   8,C   2,C   1,H   7)    -81.9752         0.009912   
    103. D(H   9,C   2,C   1,C   0)    -83.0191         0.009912   
    104. D(C   3,C   2,C   1,H   6)    -81.8763         0.009912   
    105. D(H   9,C   2,C   1,H   7)     38.4578         0.009912   
    106. D(C   3,C   2,C   1,H   7)    156.5039         0.009912   
    107. D(H  11,C   3,C   2,H   9)   -143.4628         0.009774   
    108. D(O   4,C   3,C   2,H   8)   -140.0066         0.009774   
    109. D(O   4,C   3,C   2,H   9)     99.4739         0.009774   
    110. D(H  10,C   3,C   2,C   1)   -137.7433         0.009774   
    111. D(H  10,C   3,C   2,H   8)    100.4468         0.009774   
    112. D(H  10,C   3,C   2,H   9)    -20.0727         0.009774   
    113. D(H  11,C   3,C   2,C   1)     98.8667         0.009774   
    114. D(O   4,C   3,C   2,C   1)    -18.1967         0.009774 C 
    115. D(H  11,C   3,C   2,H   8)    -22.9433         0.009774   
    116. D(C   3,O   4,C   0,C   1)     29.5918         0.014035 C 
    117. D(C   3,O   4,C   0,H   5)    151.2013         0.014035   
    118. D(C   3,O   4,C   0,O  15)    -90.0707         0.014035   
    119. D(C   0,O   4,C   3,C   2)     -6.8732         0.012866 C 
    120. D(C   0,O   4,C   3,H  10)    114.8547         0.012866   
    121. D(C   0,O   4,C   3,H  11)   -127.4272         0.012866   
    122. D(C   0,O  15,C  12,C  16)   -180.0000         0.007762 C 
    123. D(C  12,O  15,C   0,O   4)    -30.0000         0.007793 C 
    124. D(C  12,O  15,C   0,H   5)     87.4197         0.007793   
    125. D(C   0,O  15,C  12,H  14)     59.3929         0.007762   
    126. D(C   0,O  15,C  12,H  13)    -59.4981         0.007762   
    127. D(C  12,O  15,C   0,C   1)   -145.3132         0.007793   
    128. D(C  17,C  16,C  12,H  13)     63.6675         0.009507   
    129. D(H  21,C  16,C  12,H  14)    179.6323         0.009507   
    130. D(C  17,C  16,C  12,O  15)   -175.3121         0.009507   
    131. D(O  20,C  16,C  12,H  13)    178.9190         0.009507   
    132. D(O  20,C  16,C  12,H  14)     62.1364         0.009507   
    133. D(O  20,C  16,C  12,O  15)    -60.0606         0.009507 C 
    134. D(C  17,C  16,C  12,H  14)    -53.1151         0.009507   
    135. D(H  21,C  16,C  12,H  13)    -63.5851         0.009507   
    136. D(H  21,C  16,C  12,O  15)     57.4353         0.009507   
    137. D(C  18,C  17,C  16,C  12)     79.0793         0.010956   
    138. D(C  18,C  17,C  16,O  20)    -39.9731         0.010956 C 
    139. D(C  18,C  17,C  16,H  21)   -156.5848         0.010956   
    140. D(H  22,C  17,C  16,C  12)   -163.5854         0.010956   
    141. D(H  22,C  17,C  16,O  20)     77.3622         0.010956   
    142. D(H  22,C  17,C  16,H  21)    -39.2495         0.010956   
    143. D(O  23,C  17,C  16,C  12)    -42.2078         0.010956   
    144. D(O  23,C  17,C  16,O  20)   -161.2602         0.010956   
    145. D(O  23,C  17,C  16,H  21)     82.1281         0.010956   
    146. D(H  24,C  18,C  17,O  23)    -81.9301         0.009862   
    147. D(C  19,C  18,C  17,H  22)    -81.9696         0.009862   
    148. D(C  19,C  18,C  17,O  23)    156.5386         0.009862   
    149. D(H  24,C  18,C  17,C  16)    156.5499         0.009862   
    150. D(C  19,C  18,C  17,C  16)     35.0185         0.009862 C 
    151. D(H  24,C  18,C  17,H  22)     39.5618         0.009862   
    152. D(H  25,C  18,C  17,C  16)    -82.9889         0.009862   
    153. D(H  25,C  18,C  17,H  22)    160.0230         0.009862   
    154. D(H  25,C  18,C  17,O  23)     38.5312         0.009862   
    155. D(H  27,C  19,C  18,H  25)   -143.4893         0.009769   
    156. D(O  20,C  19,C  18,H  24)   -140.0303         0.009769   
    157. D(O  20,C  19,C  18,H  25)     99.3826         0.009769   
    158. D(H  26,C  19,C  18,C  17)   -137.6868         0.009769   
    159. D(H  26,C  19,C  18,H  24)    100.4730         0.009769   
    160. D(H  26,C  19,C  18,H  25)    -20.1142         0.009769   
    161. D(H  27,C  19,C  18,C  17)     98.9381         0.009769   
    162. D(O  20,C  19,C  18,C  17)    -18.1901         0.009769 C 
    163. D(H  27,C  19,C  18,H  24)    -22.9021         0.009769   
    164. D(C  19,O  20,C  16,C  12)    -90.0631         0.014046   
    165. D(C  19,O  20,C  16,C  17)     29.5524         0.014046 C 
    166. D(C  19,O  20,C  16,H  21)    151.1641         0.014046   
    167. D(C  16,O  20,C  19,C  18)     -6.8398         0.012912 C 
    168. D(C  16,O  20,C  19,H  26)    114.8401         0.012912   
    169. D(C  16,O  20,C  19,H  27)   -127.4088         0.012912   
    170. D(H  28,O  23,C  17,C  16)     57.6982         0.007757   
    171. D(H  28,O  23,C  17,C  18)    -57.1134         0.007757   
    172. D(H  28,O  23,C  17,H  22)   -179.9015         0.007757   
    -----------------------------------------------------------------

Number of atoms                         .... 29
Number of degrees of freedom            .... 172

Time needed for optimization step       :    10.70 sec

         *************************************************************
         *                GEOMETRY OPTIMIZATION CYCLE   1            *
         *************************************************************
---------------------------------
CARTESIAN COORDINATES (ANGSTROEM)
---------------------------------
  C    -21.047912   26.221863   46.251134
  C    -20.360981   27.557878   45.944008
  C    -20.329209   28.222120   47.340904
  C    -20.110227   27.022288   48.296116
  O    -20.473030   25.807141   47.535272
  H    -20.832755   25.427788   45.533264
  H    -19.343923   27.381901   45.576157
  H    -20.897942   28.156716   45.200848
  H    -19.543284   28.978201   47.433878
  H    -21.289274   28.710075   47.547707
  H    -20.733341   27.082377   49.195031
  H    -19.064254   26.913423   48.597259
  C    -23.271040   25.475819   47.423864
  H    -23.084092   24.425824   47.162807
  H    -22.857082   25.658729   48.423898
  O    -22.585936   26.393806   46.374920
  C    -24.806997   25.694083   47.500968
  C    -25.432066   24.858090   48.622939
  C    -25.093836   25.705915   49.872998
  C    -25.190623   27.159977   49.347132
  O    -25.109736   27.080097   47.873123
  H    -25.243094   25.524236   46.514984
  H    -26.517087   24.791288   48.484004
  O    -24.860306   23.415986   48.700772
  H    -25.772812   25.518955   50.710026
  H    -24.074852   25.484710   50.211910
  H    -24.377490   27.794806   49.717134
  H    -26.146527   27.630118   49.593238
  H    -23.774290   23.456788   48.841704

----------------------------
CARTESIAN COORDINATES (A.U.)
----------------------------
  NO LB      ZA    FRAG     MASS         X           Y           Z
   0 C     6.0000    0    12.011  -39.774790   49.552140   87.401976
   1 C     6.0000    0    12.011  -38.476679   52.076843   86.821592
   2 C     6.0000    0    12.011  -38.416638   53.332078   89.461343
   3 C     6.0000    0    12.011  -38.002821   51.064723   91.266432
   4 O     8.0000    0    15.999  -38.688419   48.768428   89.828645
   5 H     1.0000    0     1.008  -39.368202   48.051556   86.045398
   6 H     1.0000    0     1.008  -36.554717   51.744294   86.126456
   7 H     1.0000    0     1.008  -39.491388   53.208482   85.417225
   8 H     1.0000    0     1.008  -36.931455   54.760865   89.637038
   9 H     1.0000    0     1.008  -40.230898   54.254179   89.852145
  10 H     1.0000    0     1.008  -39.180336   51.178275   92.965135
  11 H     1.0000    0     1.008  -36.026219   50.858998   91.835511
  12 C     6.0000    0    12.011  -43.975892   48.142321   89.618116
  13 H     1.0000    0     1.008  -43.622612   46.158118   89.124789
  14 H     1.0000    0     1.008  -43.193624   48.487972   91.507906
  15 O     8.0000    0    15.999  -42.681234   49.877064   87.635899
  16 C     6.0000    0    12.011  -46.878431   48.554781   89.763820
  17 C     6.0000    0    12.011  -48.059640   46.974982   91.884038
  18 C     6.0000    0    12.011  -47.420478   48.577140   94.246307
  19 C     6.0000    0    12.011  -47.603379   51.324919   93.252566
  20 O     8.0000    0    15.999  -47.450525   51.173967   90.467092
  21 H     1.0000    0     1.008  -47.702534   48.233817   87.900581
  22 H     1.0000    0     1.008  -50.110032   46.848745   91.621489
  23 O     8.0000    0    15.999  -46.979171   44.249800   92.031122
  24 H     1.0000    0     1.008  -48.703556   48.223837   95.828062
  25 H     1.0000    0     1.008  -45.494877   48.159122   94.886759
  26 H     1.0000    0     1.008  -46.066780   52.524571   93.951768
  27 H     1.0000    0     1.008  -49.409775   52.213356   93.717639
  28 H     1.0000    0     1.008  -44.926897   44.326906   92.297445

--------------------------------
INTERNAL COORDINATES (ANGSTROEM)
--------------------------------
 C      0   0   0     0.000000000000     0.00000000     0.00000000
 C      1   0   0     1.533334275362     0.00000000     0.00000000
 C      2   1   0     1.547103422529   101.67907390     0.00000000
 C      3   2   1     1.549188819996   103.12737509    35.02687180
 O      1   2   3     1.466801281701   104.24948604   319.98542309
 H      1   2   3     1.091872245274   114.43876658   203.42640133
 H      2   1   3     1.095759553917   110.06782188   117.34000099
 H      2   1   3     1.095088580892   113.12442239   238.72597460
 H      3   2   1     1.094523183857   112.83161078   156.54780790
 H      3   2   1     1.096628013503   110.07982737   276.98070077
 H      4   3   2     1.095413164062   112.52534669   222.25678475
 H      4   3   2     1.093891219455   112.45670684    98.86663270
 C      1   2   3     2.621864603674   135.83778408    53.11057246
 H     13   1   2     1.097993624754    91.22303575   175.11908071
 H     13   1   2     1.097672537691    92.31320523   283.35540404
 O      1   2   3     1.552547583812   111.30349807    79.08752829
 C     13   1   2     1.553302610569   145.15197144    49.59613447
 C     17  13   1     1.532450651734   111.28650048   184.66976884
 C     18  17  13     1.547852706171   101.73229005    79.07970950
 C     19  18  17     1.549258209596   103.08015093    35.01845346
 O     17  13   1     1.466693219457   110.45573384   299.92220017
 H     17  13   1     1.091417427019   109.17086687    57.41664026
 H     18  17  13     1.095917423897   110.13718238   196.41477535
 O     18  17  13     1.553264948423   113.14311309   317.79240301
 H     19  18  17     1.093882534827   112.87499979   156.54983420
 H     19  18  17     1.096413699294   110.01171624   277.01104814
 H     20  19  18     1.095944341652   112.50184477   222.31320996
 H     20  19  18     1.093321544652   112.44554877    98.93808025
 H     24  18  17     1.095882292949   109.67375803    57.69813781

---------------------------
INTERNAL COORDINATES (A.U.)
---------------------------
 C      0   0   0     0.000000000000     0.00000000     0.00000000
 C      1   0   0     2.897581852189     0.00000000     0.00000000
 C      2   1   0     2.923601769431   101.67907390     0.00000000
 C      3   2   1     2.927542599525   103.12737509    35.02687180
 O      1   2   3     2.771852715300   104.24948604   319.98542309
 H      1   2   3     2.063339516798   114.43876658   203.42640133
 H      2   1   3     2.070685465531   110.06782188   117.34000099
 H      2   1   3     2.069417510270   113.12442239   238.72597460
 H      3   2   1     2.068349064717   112.83161078   156.54780790
 H      3   2   1     2.072326616307   110.07982737   276.98070077
 H      4   3   2     2.070030883569   112.52534669   222.25678475
 H      4   3   2     2.067154825070   112.45670684    98.86663270
 C      1   2   3     4.954606061166   135.83778408    53.11057246
 H     13   1   2     2.074907247576    91.22303575   175.11908071
 H     13   1   2     2.074300480961    92.31320523   283.35540404
 O      1   2   3     2.933889743286   111.30349807    79.08752829
 C     13   1   2     2.935316537080   145.15197144    49.59613447
 C     17  13   1     2.895912045526   111.28650048   184.66976884
 C     18  17  13     2.925017710312   101.73229005    79.07970950
 C     19  18  17     2.927673726865   103.08015093    35.01845346
 O     17  13   1     2.771648507252   110.45573384   299.92220017
 H     17  13   1     2.062480034854   109.17086687    57.41664026
 H     18  17  13     2.070983796557   110.13718238   196.41477535
 O     18  17  13     2.935245365939   113.14311309   317.79240301
 H     19  18  17     2.067138413503   112.87499979   156.54983420
 H     19  18  17     2.071921621146   110.01171624   277.01104814
 H     20  19  18     2.071034663744   112.50184477   222.31320996
 H     20  19  18     2.066078295708   112.44554877    98.93808025
 H     24  18  17     2.070917408688   109.67375803    57.69813781

---------------------
BASIS SET INFORMATION
---------------------
There are 3 groups of distinct atoms

 Group   1 Type C   : 10s4p contracted to 3s2p pattern {631/31}
 Group   2 Type O   : 10s4p contracted to 3s2p pattern {631/31}
 Group   3 Type H   : 4s contracted to 2s pattern {31}

Atom   0C    basis set group =>   1
Atom   1C    basis set group =>   1
Atom   2C    basis set group =>   1
Atom   3C    basis set group =>   1
Atom   4O    basis set group =>   2
Atom   5H    basis set group =>   3
Atom   6H    basis set group =>   3
Atom   7H    basis set group =>   3
Atom   8H    basis set group =>   3
Atom   9H    basis set group =>   3
Atom  10H    basis set group =>   3
Atom  11H    basis set group =>   3
Atom  12C    basis set group =>   1
Atom  13H    basis set group =>   3
Atom  14H    basis set group =>   3
Atom  15O    basis set group =>   2
Atom  16C    basis set group =>   1
Atom  17C    basis set group =>   1
Atom  18C    basis set group =>   1
Atom  19C    basis set group =>   1
Atom  20O    basis set group =>   2
Atom  21H    basis set group =>   3
Atom  22H    basis set group =>   3
Atom  23O    basis set group =>   2
Atom  24H    basis set group =>   3
Atom  25H    basis set group =>   3
Atom  26H    basis set group =>   3
Atom  27H    basis set group =>   3
Atom  28H    basis set group =>   3
------------------------------------------------------------------------------
                           ORCA GTO INTEGRAL CALCULATION
------------------------------------------------------------------------------

                         BASIS SET STATISTICS AND STARTUP INFO

 # of primitive gaussian shells          ...  246
 # of primitive gaussian functions       ...  350
 # of contracted shells                  ...   97
 # of contracted basis functions         ...  149
 Highest angular momentum                ...    1
 Maximum contraction depth               ...    6
 Integral package used                   ... LIBINT
 Integral threshhold            Thresh   ...  2.500e-11
 Primitive cut-off              TCut     ...  2.500e-12


------------------------------ INTEGRAL EVALUATION ----------------------------


 * One electron integrals 
 Pre-screening matrix                    ... done
 Shell pair data                         ... done (   0.002 sec)

-------------------------------------------------------------------------------
                                 ORCA SCF
-------------------------------------------------------------------------------

------------
SCF SETTINGS
------------
Hamiltonian:
 Density Functional     Method          .... DFT(GTOs)
 Exchange Functional    Exchange        .... B88
   X-Alpha parameter    XAlpha          ....  0.666667
   Becke's b parameter  XBeta           ....  0.004200
 Correlation Functional Correlation     .... LYP
 LDA part of GGA corr.  LDAOpt          .... VWN-5
 Gradients option       PostSCFGGA      .... off
 Hybrid DFT is turned on
   Fraction HF Exchange ScalHFX         ....  0.200000
   Scaling of DF-GGA-X  ScalDFX         ....  0.720000
   Scaling of DF-GGA-C  ScalDFC         ....  0.810000
   Scaling of DF-LDA-C  ScalLDAC        ....  1.000000
   Perturbative correction              ....  0.000000
   Density functional embedding theory  .... OFF
   NL short-range parameter             ....  4.800000


General Settings:
 Integral files         IntName         .... project_8053/ensemble_330_180
 Hartree-Fock type      HFTyp           .... RHF
 Total Charge           Charge          ....    0
 Multiplicity           Mult            ....    1
 Number of Electrons    NEL             ....  102
 Basis Dimension        Dim             ....  149
 Nuclear Repulsion      ENuc            ....    867.5390584526 Eh

Convergence Acceleration:
 DIIS                   CNVDIIS         .... on
   Start iteration      DIISMaxIt       ....    12
   Startup error        DIISStart       ....  0.200000
   # of expansion vecs  DIISMaxEq       ....     5
   Bias factor          DIISBfac        ....   1.050
   Max. coefficient     DIISMaxC        ....  10.000
 Newton-Raphson         CNVNR           .... off
 SOSCF                  CNVSOSCF        .... on
   Start iteration      SOSCFMaxIt      ....   150
   Startup grad/error   SOSCFStart      ....  0.003300
 Level Shifting         CNVShift        .... on
   Level shift para.    LevelShift      ....    0.2500
   Turn off err/grad.   ShiftErr        ....    0.0010
 Zerner damping         CNVZerner       .... off
 Static damping         CNVDamp         .... on
   Fraction old density DampFac         ....    0.7000
   Max. Damping (<1)    DampMax         ....    0.9800
   Min. Damping (>=0)   DampMin         ....    0.0000
   Turn off err/grad.   DampErr         ....    0.1000
 Fernandez-Rico         CNVRico         .... off

SCF Procedure:
 Maximum # iterations   MaxIter         ....   125
 SCF integral mode      SCFMode         .... Direct
   Integral package                     .... LIBINT
 Reset frequency        DirectResetFreq ....    20
 Integral Threshold     Thresh          ....  2.500e-11 Eh
 Primitive CutOff       TCut            ....  2.500e-12 Eh

Convergence Tolerance:
 Convergence Check Mode ConvCheckMode   .... Total+1el-Energy
 Convergence forced     ConvForced      .... 0
 Energy Change          TolE            ....  1.000e-08 Eh
 1-El. energy change                    ....  1.000e-05 Eh
 Orbital Gradient       TolG            ....  1.000e-05
 Orbital Rotation angle TolX            ....  1.000e-05
 DIIS Error             TolErr          ....  5.000e-07


Diagonalization of the overlap matrix:
Smallest eigenvalue                        ... 3.917e-03
Time for diagonalization                   ...    0.007 sec
Threshold for overlap eigenvalues          ... 1.000e-08
Number of eigenvalues below threshold      ... 0
Time for construction of square roots      ...    8.686 sec
Total time needed                          ...    8.696 sec

-------------------
DFT GRID GENERATION
-------------------

General Integration Accuracy     IntAcc      ...  4.340
Radial Grid Type                 RadialGrid  ... Gauss-Chebyshev
Angular Grid (max. acc.)         AngularGrid ... Lebedev-110
Angular grid pruning method      GridPruning ... 3 (G Style)
Weight generation scheme         WeightScheme... Becke
Basis function cutoff            BFCut       ...    1.0000e-11
Integration weight cutoff        WCut        ...    1.0000e-14
Grids for H and He will be reduced by one unit

# of grid points (after initial pruning)     ...  34472 (   0.0 sec)
# of grid points (after weights+screening)   ...  30997 (   0.3 sec)
nearest neighbour list constructed           ...    0.0 sec
Grid point re-assignment to atoms done       ...    0.0 sec
Grid point division into batches done        ...    0.0 sec
Reduced shell lists constructed in    0.3 sec

Total number of grid points                  ...    30997
Total number of batches                      ...      499
Average number of points per batch           ...       62
Average number of grid points per atom       ...     1069
Average number of shells per batch           ...    59.34 (61.17%)
Average number of basis functions per batch  ...    96.17 (64.54%)
Average number of large shells per batch     ...    41.05 (69.18%)
Average number of large basis fcns per batch ...    67.81 (70.51%)
Maximum spatial batch extension              ...  19.44, 20.10, 19.49 au
Average spatial batch extension              ...   3.20,  3.48,  3.40 au

Time for grid setup =    4.594 sec

------------------------------
INITIAL GUESS: MODEL POTENTIAL
------------------------------
Loading Hartree-Fock densities                     ... done
Calculating cut-offs                               ... done
Setting up the integral package                    ... done
Initializing the effective Hamiltonian             ... done
Starting the Coulomb interaction                   ... done (   0.4 sec)
Reading the grid                                   ... done
Mapping shells                                     ... done
Starting the XC term evaluation                    ... done (   0.4 sec)
  promolecular density results
     # of electrons  =    102.002394969
     EX              =    -83.665301391
     EC              =     -3.457367405
     EX+EC           =    -87.122668796
Transforming the Hamiltonian                       ... done (   0.2 sec)
Diagonalizing the Hamiltonian                      ... done (   0.0 sec)
Back transforming the eigenvectors                 ... done (   0.0 sec)
Now organizing SCF variables                       ... done
                      ------------------
                      INITIAL GUESS DONE (  13.8 sec)
                      ------------------
--------------
SCF ITERATIONS
--------------
ITER       Energy         Delta-E        Max-DP      RMS-DP      [F,P]     Damp
               ***  Starting incremental Fock matrix formation  ***
  0   -652.5318822436   0.000000000000 0.07715966  0.00307459  0.2612683 0.7000
  1   -652.6720571519  -0.140174908249 0.04655283  0.00210080  0.1155800 0.7000
                               ***Turning on DIIS***
  2   -652.7246973601  -0.052640208191 0.05740727  0.00334313  0.0325955 0.0000
  3   -652.8110946359  -0.086397275879 0.03094485  0.00138535  0.0620685 0.0000
  4   -652.8286938670  -0.017599231081 0.00856459  0.00043007  0.0110032 0.0000
  5   -652.8296800249  -0.000986157901 0.00261256  0.00013199  0.0040472 0.0000
                      *** Initiating the SOSCF procedure ***
                           *** Shutting down DIIS ***
                      *** Re-Reading the Fockian *** 
                      *** Removing any level shift *** 
ITER      Energy       Delta-E        Grad      Rot      Max-DP    RMS-DP
  6   -652.82975120  -0.0000711791  0.000138  0.000138  0.000946  0.000054
               *** Restarting incremental Fock matrix formation ***
  7   -652.82975394  -0.0000027329  0.000141  0.000322  0.001116  0.000034
  8   -652.82975123   0.0000027110  0.000269  0.000229  0.000756  0.000022
  9   -652.82975535  -0.0000041259  0.000024  0.000043  0.000223  0.000006
 10   -652.82975529   0.0000000631  0.000037  0.000023  0.000131  0.000004
 11   -652.82975541  -0.0000001202  0.000006  0.000007  0.000035  0.000001
 12   -652.82975541   0.0000000026  0.000008  0.000004  0.000020  0.000001
                  ***Gradient check signals convergence***
              ***Rediagonalizing the Fockian in SOSCF/NRSCF***

               *****************************************************
               *                     SUCCESS                       *
               *           SCF CONVERGED AFTER  13 CYCLES          *
               *****************************************************

Setting up the final grid:

General Integration Accuracy     IntAcc      ...  4.670
Radial Grid Type                 RadialGrid  ... Gauss-Chebyshev
Angular Grid (max. acc.)         AngularGrid ... Lebedev-302
Angular grid pruning method      GridPruning ... 3 (G Style)
Weight generation scheme         WeightScheme... Becke
Basis function cutoff            BFCut       ...    1.0000e-11
Integration weight cutoff        WCut        ...    1.0000e-14
Grids for H and He will be reduced by one unit

# of grid points (after initial pruning)     ... 135060 (   0.1 sec)
# of grid points (after weights+screening)   ... 118877 (   1.0 sec)
nearest neighbour list constructed           ...    0.0 sec
Grid point re-assignment to atoms done       ...    0.0 sec
Grid point division into batches done        ...    0.4 sec
Reduced shell lists constructed in    1.4 sec

Total number of grid points                  ...   118877
Total number of batches                      ...     1874
Average number of points per batch           ...       63
Average number of grid points per atom       ...     4099
Average number of shells per batch           ...    54.20 (55.88%)
Average number of basis functions per batch  ...    88.18 (59.18%)
Average number of large shells per batch     ...    36.72 (67.75%)
Average number of large basis fcns per batch ...    60.86 (69.02%)
Maximum spatial batch extension              ...  18.70, 20.59, 18.04 au
Average spatial batch extension              ...   2.16,  2.30,  2.29 au

Final grid set up in   14.4 sec
Final integration                            ... done (  28.2 sec)
Change in XC energy                          ...     0.000123995
Integrated number of electrons               ...   101.999922468
Previous integrated no of electrons          ...   102.002192252

----------------
TOTAL SCF ENERGY
----------------

Total Energy       :         -652.82963141 Eh          -17764.39740 eV

Components:
Nuclear Repulsion  :          867.53905845 Eh           23606.93793 eV
Electronic Energy  :        -1520.36868987 Eh          -41371.33533 eV
One Electron Energy:        -2612.89214948 Eh          -71100.41006 eV
Two Electron Energy:         1092.52345961 Eh           29729.07473 eV

Virial components:
Potential Energy   :        -1301.74570443 Eh          -35422.30145 eV
Kinetic Energy     :          648.91607302 Eh           17657.90406 eV
Virial Ratio       :            2.00603092


DFT components:
N(Alpha)           :       50.999961233766 electrons
N(Beta)            :       50.999961233766 electrons
N(Total)           :      101.999922467531 electrons
E(X)               :      -67.588538873548 Eh       
E(C)               :       -4.068839291147 Eh       
E(XC)              :      -71.657378164694 Eh       
DFET-embed. en.    :        0.000000000000 Eh       

---------------
SCF CONVERGENCE
---------------

  Last Energy change         ...   -3.8805e-09  Tolerance :   1.0000e-08
  Last MAX-Density change    ...    2.7322e-06  Tolerance :   1.0000e-07
  Last RMS-Density change    ...    1.0069e-07  Tolerance :   5.0000e-09
  Last Orbital Gradient      ...    3.3208e-07  Tolerance :   1.0000e-05
  Last Orbital Rotation      ...    5.3707e-07  Tolerance :   1.0000e-05

             **** THE GBW FILE WAS UPDATED (project_8053/ensemble_330_180.gbw) ****
             **** DENSITY FILE WAS UPDATED (project_8053/ensemble_330_180.scfp) ****
             **** ENERGY FILE WAS UPDATED (project_8053/ensemble_330_180.en.tmp) ****
             **** THE GBW FILE WAS UPDATED (project_8053/ensemble_330_180.gbw) ****
             **** DENSITY FILE WAS UPDATED (project_8053/ensemble_330_180.scfp) ****
----------------
ORBITAL ENERGIES
----------------

  NO   OCC          E(Eh)            E(eV) 
   0   2.0000     -19.153926      -521.2048 
   1   2.0000     -19.151566      -521.1406 
   2   2.0000     -19.137422      -520.7557 
   3   2.0000     -19.137244      -520.7509 
   4   2.0000     -10.283384      -279.8251 
   5   2.0000     -10.250629      -278.9338 
   6   2.0000     -10.237100      -278.5657 
   7   2.0000     -10.231448      -278.4119 
   8   2.0000     -10.230830      -278.3950 
   9   2.0000     -10.230037      -278.3735 
  10   2.0000     -10.195016      -277.4205 
  11   2.0000     -10.191359      -277.3210 
  12   2.0000     -10.188461      -277.2421 
  13   2.0000      -1.038534       -28.2600 
  14   2.0000      -1.024154       -27.8687 
  15   2.0000      -0.974010       -26.5042 
  16   2.0000      -0.953892       -25.9567 
  17   2.0000      -0.789669       -21.4880 
  18   2.0000      -0.783931       -21.3318 
  19   2.0000      -0.762443       -20.7471 
  20   2.0000      -0.732671       -19.9370 
  21   2.0000      -0.675832       -18.3903 
  22   2.0000      -0.604229       -16.4419 
  23   2.0000      -0.600808       -16.3488 
  24   2.0000      -0.587788       -15.9945 
  25   2.0000      -0.569148       -15.4873 
  26   2.0000      -0.519676       -14.1411 
  27   2.0000      -0.501543       -13.6477 
  28   2.0000      -0.490937       -13.3591 
  29   2.0000      -0.487927       -13.2772 
  30   2.0000      -0.464658       -12.6440 
  31   2.0000      -0.444761       -12.1026 
  32   2.0000      -0.442619       -12.0443 
  33   2.0000      -0.432352       -11.7649 
  34   2.0000      -0.417367       -11.3571 
  35   2.0000      -0.413343       -11.2476 
  36   2.0000      -0.400638       -10.9019 
  37   2.0000      -0.397620       -10.8198 
  38   2.0000      -0.377981       -10.2854 
  39   2.0000      -0.368971       -10.0402 
  40   2.0000      -0.359921        -9.7939 
  41   2.0000      -0.350483        -9.5371 
  42   2.0000      -0.349143        -9.5007 
  43   2.0000      -0.334039        -9.0897 
  44   2.0000      -0.325933        -8.8691 
  45   2.0000      -0.309941        -8.4339 
  46   2.0000      -0.302493        -8.2313 
  47   2.0000      -0.267862        -7.2889 
  48   2.0000      -0.258973        -7.0470 
  49   2.0000      -0.247783        -6.7425 
  50   2.0000      -0.242520        -6.5993 
  51   0.0000       0.023751         0.6463 
  52   0.0000       0.057309         1.5595 
  53   0.0000       0.076859         2.0914 
  54   0.0000       0.088504         2.4083 
  55   0.0000       0.094549         2.5728 
  56   0.0000       0.104933         2.8554 
  57   0.0000       0.114884         3.1262 
  58   0.0000       0.122357         3.3295 
  59   0.0000       0.136525         3.7150 
  60   0.0000       0.140704         3.8288 
  61   0.0000       0.145496         3.9592 
  62   0.0000       0.148643         4.0448 
  63   0.0000       0.150330         4.0907 
  64   0.0000       0.155073         4.2198 
  65   0.0000       0.171920         4.6782 
  66   0.0000       0.173762         4.7283 
  67   0.0000       0.179511         4.8847 
  68   0.0000       0.185526         5.0484 
  69   0.0000       0.195876         5.3301 
  70   0.0000       0.198800         5.4096 
  71   0.0000       0.211550         5.7566 
  72   0.0000       0.217442         5.9169 
  73   0.0000       0.226115         6.1529 
  74   0.0000       0.236273         6.4293 
  75   0.0000       0.251712         6.8494 
  76   0.0000       0.270481         7.3602 
  77   0.0000       0.274779         7.4771 
  78   0.0000       0.277863         7.5610 
  79   0.0000       0.285956         7.7813 
  80   0.0000       0.294338         8.0093 
  81   0.0000       0.526174        14.3179 
  82   0.0000       0.535507        14.5719 
  83   0.0000       0.547689        14.9034 
  84   0.0000       0.552279        15.0283 
  85   0.0000       0.564130        15.3508 
  86   0.0000       0.566816        15.4239 
  87   0.0000       0.575702        15.6657 
  88   0.0000       0.578800        15.7499 
  89   0.0000       0.586770        15.9668 
  90   0.0000       0.592573        16.1247 
  91   0.0000       0.599670        16.3179 
  92   0.0000       0.608546        16.5594 
  93   0.0000       0.636575        17.3221 
  94   0.0000       0.637505        17.3474 
  95   0.0000       0.642609        17.4863 
  96   0.0000       0.654484        17.8094 
  97   0.0000       0.675071        18.3696 
  98   0.0000       0.678619        18.4662 
  99   0.0000       0.682067        18.5600 
 100   0.0000       0.714426        19.4405 
 101   0.0000       0.747250        20.3337 
 102   0.0000       0.790817        21.5192 
 103   0.0000       0.797657        21.7054 
 104   0.0000       0.813261        22.1300 
 105   0.0000       0.819456        22.2985 
 106   0.0000       0.828555        22.5461 
 107   0.0000       0.849139        23.1062 
 108   0.0000       0.865764        23.5586 
 109   0.0000       0.873005        23.7557 
 110   0.0000       0.880854        23.9692 
 111   0.0000       0.883313        24.0362 
 112   0.0000       0.894555        24.3421 
 113   0.0000       0.902952        24.5706 
 114   0.0000       0.910826        24.7848 
 115   0.0000       0.926478        25.2108 
 116   0.0000       0.936204        25.4754 
 117   0.0000       0.944358        25.6973 
 118   0.0000       0.952222        25.9113 
 119   0.0000       0.966411        26.2974 
 120   0.0000       0.976894        26.5826 
 121   0.0000       0.981172        26.6991 
 122   0.0000       0.993350        27.0304 
 123   0.0000       1.032147        28.0862 
 124   0.0000       1.039509        28.2865 
 125   0.0000       1.058768        28.8105 
 126   0.0000       1.084542        29.5119 
 127   0.0000       1.099752        29.9258 
 128   0.0000       1.115600        30.3570 
 129   0.0000       1.149363        31.2758 
 130   0.0000       1.162673        31.6379 
 131   0.0000       1.210147        32.9298 
 132   0.0000       1.278833        34.7988 
 133   0.0000       1.313810        35.7506 
 134   0.0000       1.347510        36.6676 
 135   0.0000       1.362775        37.0830 
 136   0.0000       1.383497        37.6469 
 137   0.0000       1.393544        37.9203 
 138   0.0000       1.442615        39.2555 
 139   0.0000       1.453896        39.5625 
 140   0.0000       1.496540        40.7229 
 141   0.0000       1.537892        41.8482 
 142   0.0000       1.596826        43.4518 
 143   0.0000       1.622323        44.1456 
 144   0.0000       1.672930        45.5227 
 145   0.0000       1.875853        51.0446 
 146   0.0000       1.942573        52.8601 
 147   0.0000       2.029645        55.2295 
 148   0.0000       2.098345        57.0989 

                    ********************************
                    * MULLIKEN POPULATION ANALYSIS *
                    ********************************

-----------------------
MULLIKEN ATOMIC CHARGES
-----------------------
   0 C :    0.292142
   1 C :   -0.270103
   2 C :   -0.300151
   3 C :   -0.007921
   4 O :   -0.517706
   5 H :    0.153958
   6 H :    0.150031
   7 H :    0.167513
   8 H :    0.142000
   9 H :    0.170503
  10 H :    0.138398
  11 H :    0.145259
  12 C :   -0.011160
  13 H :    0.132744
  14 H :    0.132737
  15 O :   -0.523243
  16 C :    0.071999
  17 C :    0.075766
  18 C :   -0.313558
  19 C :   -0.014180
  20 O :   -0.500349
  21 H :    0.164979
  22 H :    0.173743
  23 O :   -0.590188
  24 H :    0.157931
  25 H :    0.139922
  26 H :    0.143786
  27 H :    0.148818
  28 H :    0.346329
Sum of atomic charges:   -0.0000000

--------------------------------
MULLIKEN REDUCED ORBITAL CHARGES
--------------------------------
  0 C s       :     3.230610  s :     3.230610
      pz      :     0.786139  p :     2.477248
      px      :     0.690707
      py      :     1.000402
  1 C s       :     3.310339  s :     3.310339
      pz      :     0.987496  p :     2.959765
      px      :     1.027935
      py      :     0.944334
  2 C s       :     3.315797  s :     3.315797
      pz      :     0.907038  p :     2.984353
      px      :     1.091117
      py      :     0.986198
  3 C s       :     3.261471  s :     3.261471
      pz      :     0.937311  p :     2.746450
      px      :     1.060253
      py      :     0.748886
  4 O s       :     3.942143  s :     3.942143
      pz      :     1.318684  p :     4.575563
      px      :     1.735183
      py      :     1.521696
  5 H s       :     0.846042  s :     0.846042
  6 H s       :     0.849969  s :     0.849969
  7 H s       :     0.832487  s :     0.832487
  8 H s       :     0.858000  s :     0.858000
  9 H s       :     0.829497  s :     0.829497
 10 H s       :     0.861602  s :     0.861602
 11 H s       :     0.854741  s :     0.854741
 12 C s       :     3.278277  s :     3.278277
      pz      :     0.904103  p :     2.732883
      px      :     0.900568
      py      :     0.928213
 13 H s       :     0.867256  s :     0.867256
 14 H s       :     0.867263  s :     0.867263
 15 O s       :     3.959149  s :     3.959149
      pz      :     1.621850  p :     4.564094
      px      :     1.264553
      py      :     1.677691
 16 C s       :     3.277430  s :     3.277430
      pz      :     1.023819  p :     2.650571
      px      :     0.945879
      py      :     0.680873
 17 C s       :     3.290777  s :     3.290777
      pz      :     0.917413  p :     2.633457
      px      :     1.027310
      py      :     0.688735
 18 C s       :     3.324252  s :     3.324252
      pz      :     1.001366  p :     2.989306
      px      :     1.075954
      py      :     0.911986
 19 C s       :     3.263626  s :     3.263626
      pz      :     0.681173  p :     2.750554
      px      :     1.096534
      py      :     0.972846
 20 O s       :     3.946602  s :     3.946602
      pz      :     1.300621  p :     4.553748
      px      :     1.850045
      py      :     1.403082
 21 H s       :     0.835021  s :     0.835021
 22 H s       :     0.826257  s :     0.826257
 23 O s       :     3.954282  s :     3.954282
      pz      :     1.918951  p :     4.635907
      px      :     1.295245
      py      :     1.421711
 24 H s       :     0.842069  s :     0.842069
 25 H s       :     0.860078  s :     0.860078
 26 H s       :     0.856214  s :     0.856214
 27 H s       :     0.851182  s :     0.851182
 28 H s       :     0.653671  s :     0.653671


                     *******************************
                     * LOEWDIN POPULATION ANALYSIS *
                     *******************************

----------------------
LOEWDIN ATOMIC CHARGES
----------------------
   0 C :    0.189544
   1 C :   -0.215196
   2 C :   -0.217472
   3 C :   -0.031191
   4 O :   -0.323603
   5 H :    0.104899
   6 H :    0.117489
   7 H :    0.130307
   8 H :    0.113933
   9 H :    0.122902
  10 H :    0.099202
  11 H :    0.103446
  12 C :   -0.049327
  13 H :    0.100829
  14 H :    0.096775
  15 O :   -0.362541
  16 C :    0.027531
  17 C :    0.042814
  18 C :   -0.236364
  19 C :   -0.032941
  20 O :   -0.314225
  21 H :    0.121345
  22 H :    0.127008
  23 O :   -0.434730
  24 H :    0.122974
  25 H :    0.107967
  26 H :    0.101589
  27 H :    0.105153
  28 H :    0.281883

-------------------------------
LOEWDIN REDUCED ORBITAL CHARGES
-------------------------------
  0 C s       :     2.981510  s :     2.981510
      pz      :     0.911129  p :     2.828946
      px      :     0.831631
      py      :     1.086186
  1 C s       :     2.976918  s :     2.976918
      pz      :     1.078650  p :     3.238278
      px      :     1.104764
      py      :     1.054864
  2 C s       :     2.972949  s :     2.972949
      pz      :     1.031000  p :     3.244523
      px      :     1.135823
      py      :     1.077700
  3 C s       :     2.984119  s :     2.984119
      pz      :     1.036895  p :     3.047072
      px      :     1.119936
      py      :     0.890242
  4 O s       :     3.607558  s :     3.607558
      pz      :     1.382854  p :     4.716045
      px      :     1.765882
      py      :     1.567309
  5 H s       :     0.895101  s :     0.895101
  6 H s       :     0.882511  s :     0.882511
  7 H s       :     0.869693  s :     0.869693
  8 H s       :     0.886067  s :     0.886067
  9 H s       :     0.877098  s :     0.877098
 10 H s       :     0.900798  s :     0.900798
 11 H s       :     0.896554  s :     0.896554
 12 C s       :     3.000899  s :     3.000899
      pz      :     0.995890  p :     3.048428
      px      :     1.033606
      py      :     1.018932
 13 H s       :     0.899171  s :     0.899171
 14 H s       :     0.903225  s :     0.903225
 15 O s       :     3.656521  s :     3.656521
      pz      :     1.660907  p :     4.706019
      px      :     1.331290
      py      :     1.713823
 16 C s       :     2.964904  s :     2.964904
      pz      :     1.098039  p :     3.007565
      px      :     1.061428
      py      :     0.848098
 17 C s       :     2.973531  s :     2.973531
      pz      :     1.050768  p :     2.983655
      px      :     1.087920
      py      :     0.844966
 18 C s       :     2.981699  s :     2.981699
      pz      :     1.086298  p :     3.254665
      px      :     1.125848
      py      :     1.042519
 19 C s       :     2.981643  s :     2.981643
      pz      :     0.828272  p :     3.051298
      px      :     1.144782
      py      :     1.078244
 20 O s       :     3.604081  s :     3.604081
      pz      :     1.368496  p :     4.710144
      px      :     1.875348
      py      :     1.466300
 21 H s       :     0.878655  s :     0.878655
 22 H s       :     0.872992  s :     0.872992
 23 O s       :     3.693839  s :     3.693839
      pz      :     1.927627  p :     4.740891
      px      :     1.339781
      py      :     1.473483
 24 H s       :     0.877026  s :     0.877026
 25 H s       :     0.892033  s :     0.892033
 26 H s       :     0.898411  s :     0.898411
 27 H s       :     0.894847  s :     0.894847
 28 H s       :     0.718117  s :     0.718117


                      *****************************
                      * MAYER POPULATION ANALYSIS *
                      *****************************

  NA   - Mulliken gross atomic population
  ZA   - Total nuclear charge
  QA   - Mulliken gross atomic charge
  VA   - Mayer's total valence
  BVA  - Mayer's bonded valence
  FA   - Mayer's free valence

  ATOM       NA         ZA         QA         VA         BVA        FA
  0 C      5.7079     6.0000     0.2921     3.6416     3.6416     0.0000
  1 C      6.2701     6.0000    -0.2701     3.7283     3.7283    -0.0000
  2 C      6.3002     6.0000    -0.3002     3.7615     3.7615    -0.0000
  3 C      6.0079     6.0000    -0.0079     3.6598     3.6598    -0.0000
  4 O      8.5177     8.0000    -0.5177     1.7926     1.7926    -0.0000
  5 H      0.8460     1.0000     0.1540     0.9248     0.9248    -0.0000
  6 H      0.8500     1.0000     0.1500     0.9309     0.9309    -0.0000
  7 H      0.8325     1.0000     0.1675     0.9355     0.9355    -0.0000
  8 H      0.8580     1.0000     0.1420     0.9364     0.9364    -0.0000
  9 H      0.8295     1.0000     0.1705     0.9328     0.9328     0.0000
 10 H      0.8616     1.0000     0.1384     0.9278     0.9278     0.0000
 11 H      0.8547     1.0000     0.1453     0.9284     0.9284     0.0000
 12 C      6.0112     6.0000    -0.0112     3.6461     3.6461    -0.0000
 13 H      0.8673     1.0000     0.1327     0.9382     0.9382    -0.0000
 14 H      0.8673     1.0000     0.1327     0.9373     0.9373    -0.0000
 15 O      8.5232     8.0000    -0.5232     1.7749     1.7749    -0.0000
 16 C      5.9280     6.0000     0.0720     3.5762     3.5762    -0.0000
 17 C      5.9242     6.0000     0.0758     3.6393     3.6393     0.0000
 18 C      6.3136     6.0000    -0.3136     3.7170     3.7170    -0.0000
 19 C      6.0142     6.0000    -0.0142     3.6551     3.6551    -0.0000
 20 O      8.5003     8.0000    -0.5003     1.7787     1.7787     0.0000
 21 H      0.8350     1.0000     0.1650     0.9328     0.9328    -0.0000
 22 H      0.8263     1.0000     0.1737     0.9274     0.9274     0.0000
 23 O      8.5902     8.0000    -0.5902     1.7675     1.7675    -0.0000
 24 H      0.8421     1.0000     0.1579     0.9371     0.9371    -0.0000
 25 H      0.8601     1.0000     0.1399     0.9433     0.9433    -0.0000
 26 H      0.8562     1.0000     0.1438     0.9254     0.9254     0.0000
 27 H      0.8512     1.0000     0.1488     0.9270     0.9270     0.0000
 28 H      0.6537     1.0000     0.3463     0.8534     0.8534    -0.0000

  Mayer bond orders larger than 0.100000
B(  0-C ,  1-C ) :   0.9435 B(  0-C ,  4-O ) :   0.8870 B(  0-C ,  5-H ) :   0.9206 
B(  0-C , 15-O ) :   0.8504 B(  1-C ,  2-C ) :   0.9557 B(  1-C ,  6-H ) :   0.9339 
B(  1-C ,  7-H ) :   0.9329 B(  2-C ,  3-C ) :   0.9543 B(  2-C ,  8-H ) :   0.9444 
B(  2-C ,  9-H ) :   0.9423 B(  3-C ,  4-O ) :   0.8361 B(  3-C , 10-H ) :   0.9342 
B(  3-C , 11-H ) :   0.9398 B( 12-C , 13-H ) :   0.9031 B( 12-C , 14-H ) :   0.9104 
B( 12-C , 15-O ) :   0.8551 B( 12-C , 16-C ) :   0.9024 B( 16-C , 17-C ) :   0.8782 
B( 16-C , 20-O ) :   0.8661 B( 16-C , 21-H ) :   0.9297 B( 17-C , 18-C ) :   0.9173 
B( 17-C , 22-H ) :   0.9318 B( 17-C , 23-O ) :   0.8918 B( 18-C , 19-C ) :   0.9302 
B( 18-C , 24-H ) :   0.9428 B( 18-C , 25-H ) :   0.9412 B( 19-C , 20-O ) :   0.8505 
B( 19-C , 26-H ) :   0.9314 B( 19-C , 27-H ) :   0.9373 B( 23-O , 28-H ) :   0.7995 


-------
TIMINGS
-------

Total SCF time: 0 days 0 hours 32 min 50 sec 

Total time                  ....    1970.277 sec
Sum of individual times     ....    1843.388 sec  ( 93.6%)

Fock matrix formation       ....    1755.157 sec  ( 89.1%)
  XC integration            ....     996.793 sec  ( 56.8% of F)
    Basis function eval.    ....       2.985 sec  (  0.3% of XC)
    Density eval.           ....       3.326 sec  (  0.3% of XC)
    XC-Functional eval.     ....       2.494 sec  (  0.3% of XC)
    XC-Potential eval.      ....       1.219 sec  (  0.1% of XC)
Diagonalization             ....      28.031 sec  (  1.4%)
Density matrix formation    ....       0.014 sec  (  0.0%)
Population analysis         ....      13.919 sec  (  0.7%)
Initial guess               ....       9.195 sec  (  0.5%)
Orbital Transformation      ....       0.000 sec  (  0.0%)
Orbital Orthonormalization  ....       0.000 sec  (  0.0%)
DIIS solution               ....      15.321 sec  (  0.8%)
SOSCF solution              ....       2.783 sec  (  0.1%)
Grid generation             ....      18.968 sec  (  1.0%)

-------------------------   --------------------
FINAL SINGLE POINT ENERGY      -652.829631414980
-------------------------   --------------------

------------------------------------------------------------------------------
                         ORCA SCF GRADIENT CALCULATION
------------------------------------------------------------------------------

Gradient of the Kohn-Sham DFT energy:
Kohn-Sham wavefunction type      ... RKS
Hartree-Fock exchange scaling    ...    0.200
Number of operators              ...    1
Number of atoms                  ...   29
Basis set dimensions             ...  149
Integral neglect threshold       ... 2.5e-11
Integral primitive cutoff        ... 2.5e-12

Nuclear repulsion gradient       ... done
One Electron Gradient            ... done
Pre-screening matrix             ... done
Starting the two electron gradient:
Two electron gradient done
Exchange-correlation gradient    ... done

------------------
CARTESIAN GRADIENT
------------------

   1   C   :    0.019370365    0.009660409   -0.016745623
   2   C   :    0.015150598   -0.004085431   -0.003847246
   3   C   :    0.000497120   -0.000870606   -0.002091495
   4   C   :   -0.001600859   -0.005512652   -0.002293730
   5   O   :    0.005858191   -0.004341512    0.013035234
   6   H   :    0.004439861    0.002380118   -0.001648290
   7   H   :    0.000837862    0.003807986    0.000315878
   8   H   :    0.000644693    0.001986200   -0.001355550
   9   H   :   -0.000890085    0.000847311    0.000115044
  10   H   :   -0.000663728    0.001916946    0.001432530
  11   H   :   -0.000218296    0.000730605    0.000678107
  12   H   :   -0.000216318    0.001015838    0.000302115
  13   C   :   -0.011489679   -0.009963060    0.016116839
  14   H   :   -0.002394767   -0.002337773    0.003496279
  15   H   :   -0.006187395   -0.003116241    0.006106178
  16   O   :   -0.010552482    0.014448812   -0.019689020
  17   C   :   -0.021570969   -0.010994307    0.020198989
  18   C   :   -0.029010500    0.024418619   -0.010553691
  19   C   :    0.005107174   -0.003355599   -0.001169004
  20   C   :   -0.000861082    0.001327648   -0.003154298
  21   O   :    0.002818947    0.003863191   -0.000372489
  22   H   :    0.002572464   -0.000740826   -0.000639190
  23   H   :   -0.004626251    0.010835933    0.000029487
  24   O   :   -0.040087035   -0.031080358   -0.005102664
  25   H   :   -0.000267587    0.000912979    0.000874661
  26   H   :    0.001091973    0.001565342   -0.000319766
  27   H   :    0.000922479    0.000004727   -0.000053368
  28   H   :    0.000614174   -0.000392838   -0.000448450
  29   H   :    0.070711131   -0.002931464    0.006782534

Difference to translation invariance:
           :    0.0000000000    0.0000000000   -0.0000000001

Norm of the cartesian gradient     ...    0.1143168207
RMS gradient                       ...    0.0122560496
MAX gradient                       ...    0.0707111312

-------
TIMINGS
-------

Total SCF gradient time            ...       48.643 sec

One electron gradient       ....       0.298 sec  (  0.6%)
Prescreening matrices       ....       0.048 sec  (  0.1%)
Two electron gradient       ....      29.851 sec  ( 61.4%)
XC gradient                 ....       8.057 sec  ( 16.6%)
------------------------------------------------------------------------------
                         ORCA GEOMETRY RELAXATION STEP
------------------------------------------------------------------------------

Reading the OPT-File                    .... done
Getting information on internals        .... done
Copying old internal coords+grads       .... done
Making the new internal coordinates     .... (new redundants).... done
Validating the new internal coordinates .... (new redundants).... done
Calculating the B-matrix                .... done
Calculating the G,G- and P matrices     .... done
Transforming gradient to internals      .... done
Projecting the internal gradient        .... done
Number of atoms                         ....  29
Number of internal coordinates          .... 172
Current Energy                          ....  -652.829631415 Eh
Current gradient norm                   ....     0.114316821 Eh/bohr
Maximum allowed component of the step   ....  0.300
Current trust radius                    ....  0.300
Evaluating the initial hessian          ....  (Almloef) done
Projecting the Hessian                  .... done
Forming the augmented Hessian           .... done
Diagonalizing the augmented Hessian     .... done
Last element of RFO vector              ....  0.938799085
Lowest eigenvalues of augmented Hessian:
 -0.040572554  0.007885690  0.032939737  0.033072610  0.036620900
Length of the computed step             ....  0.366921114
Warning: the length of the step is outside the trust region - taking restricted step instead
The input lambda is                     ....    -0.040573
   iter:   1  x=   -0.080213  g=    1.125909 f(x)=     0.044631
   iter:   2  x=   -0.098297  g=    0.636400 f(x)=     0.011509
   iter:   3  x=   -0.100303  g=    0.525659 f(x)=     0.001055
   iter:   4  x=   -0.100323  g=    0.515347 f(x)=     0.000010
   iter:   5  x=   -0.100323  g=    0.515245 f(x)=     0.000000
   iter:   6  x=   -0.100323  g=    0.515245 f(x)=     0.000000
The output lambda is                    ....    -0.100323 (6 iterations)
The final length of the internal step   ....  0.300000000
Converting the step to cartesian space:
 Initial RMS(Int)=    0.0228747855
Transforming coordinates:
 Iter   0:  RMS(Cart)=    0.0927903599 RMS(Int)=    0.4780450422
 Iter   1:  RMS(Cart)=    0.0023854370 RMS(Int)=    0.0009322166
 Iter   2:  RMS(Cart)=    0.0001511985 RMS(Int)=    0.0000750653
 Iter   3:  RMS(Cart)=    0.0000084121 RMS(Int)=    0.0000045276
 Iter   4:  RMS(Cart)=    0.0000004075 RMS(Int)=    0.0000002283
 Iter   5:  RMS(Cart)=    0.0000000305 RMS(Int)=    0.0000000162
Imposing constraints:
 Iter   0:  RMS(Cart)=    0.0000327580 RMS(Int)=    0.0000504250
 Iter   1:  RMS(Cart)=    0.0000193777 RMS(Int)=    0.0000354202
 Iter   2:  RMS(Cart)=    0.0000147987 RMS(Int)=    0.0000266855
 Iter   3:  RMS(Cart)=    0.0000120261 RMS(Int)=    0.0000215452
 Iter   4:  RMS(Cart)=    0.0000096326 RMS(Int)=    0.0000184989
[...]
  29   2.0000      -0.492271       -13.3954 
  30   2.0000      -0.471069       -12.8184 
  31   2.0000      -0.455907       -12.4059 
  32   2.0000      -0.445106       -12.1119 
  33   2.0000      -0.433091       -11.7850 
  34   2.0000      -0.426211       -11.5978 
  35   2.0000      -0.411541       -11.1986 
  36   2.0000      -0.401954       -10.9377 
  37   2.0000      -0.400595       -10.9007 
  38   2.0000      -0.377531       -10.2731 
  39   2.0000      -0.367595       -10.0028 
  40   2.0000      -0.358822        -9.7640 
  41   2.0000      -0.353802        -9.6274 
  42   2.0000      -0.346259        -9.4222 
  43   2.0000      -0.337494        -9.1837 
  44   2.0000      -0.323282        -8.7970 
  45   2.0000      -0.312467        -8.5026 
  46   2.0000      -0.300299        -8.1716 
  47   2.0000      -0.269793        -7.3414 
  48   2.0000      -0.260451        -7.0872 
  49   2.0000      -0.250818        -6.8251 
  50   2.0000      -0.240954        -6.5567 
  51   0.0000       0.052311         1.4235 
  52   0.0000       0.066570         1.8115 
  53   0.0000       0.091710         2.4956 
  54   0.0000       0.097356         2.6492 
  55   0.0000       0.104977         2.8566 
  56   0.0000       0.113368         3.0849 
  57   0.0000       0.121906         3.3172 
  58   0.0000       0.135437         3.6854 
  59   0.0000       0.140812         3.8317 
  60   0.0000       0.145974         3.9721 
  61   0.0000       0.148092         4.0298 
  62   0.0000       0.155422         4.2292 
  63   0.0000       0.158026         4.3001 
  64   0.0000       0.163701         4.4545 
  65   0.0000       0.179353         4.8805 
  66   0.0000       0.184333         5.0160 
  67   0.0000       0.185494         5.0475 
  68   0.0000       0.198211         5.3936 
  69   0.0000       0.203642         5.5414 
  70   0.0000       0.206885         5.6296 
  71   0.0000       0.222270         6.0483 
  72   0.0000       0.230374         6.2688 
  73   0.0000       0.235469         6.4074 
  74   0.0000       0.249653         6.7934 
  75   0.0000       0.261967         7.1285 
  76   0.0000       0.273473         7.4416 
  77   0.0000       0.286197         7.7878 
  78   0.0000       0.292741         7.9659 
  79   0.0000       0.294869         8.0238 
  80   0.0000       0.312231         8.4962 
  81   0.0000       0.524975        14.2853 
  82   0.0000       0.535082        14.5603 
  83   0.0000       0.550229        14.9725 
  84   0.0000       0.553910        15.0726 
  85   0.0000       0.568513        15.4700 
  86   0.0000       0.571077        15.5398 
  87   0.0000       0.571547        15.5526 
  88   0.0000       0.581358        15.8196 
  89   0.0000       0.592459        16.1216 
  90   0.0000       0.602366        16.3912 
  91   0.0000       0.605930        16.4882 
  92   0.0000       0.617428        16.8011 
  93   0.0000       0.639206        17.3937 
  94   0.0000       0.641693        17.4614 
  95   0.0000       0.646220        17.5845 
  96   0.0000       0.661972        18.0132 
  97   0.0000       0.669306        18.2127 
  98   0.0000       0.682980        18.5848 
  99   0.0000       0.697056        18.9679 
 100   0.0000       0.724633        19.7183 
 101   0.0000       0.750088        20.4109 
 102   0.0000       0.800820        21.7914 
 103   0.0000       0.812426        22.1072 
 104   0.0000       0.820870        22.3370 
 105   0.0000       0.829759        22.5789 
 106   0.0000       0.845248        23.0004 
 107   0.0000       0.849628        23.1195 
 108   0.0000       0.866107        23.5680 
 109   0.0000       0.873687        23.7742 
 110   0.0000       0.883845        24.0506 
 111   0.0000       0.889046        24.1922 
 112   0.0000       0.896832        24.4041 
 113   0.0000       0.906156        24.6578 
 114   0.0000       0.914153        24.8754 
 115   0.0000       0.929164        25.2838 
 116   0.0000       0.934888        25.4396 
 117   0.0000       0.945895        25.7391 
 118   0.0000       0.954687        25.9783 
 119   0.0000       0.965567        26.2744 
 120   0.0000       0.973152        26.4808 
 121   0.0000       0.985001        26.8032 
 122   0.0000       1.007687        27.4206 
 123   0.0000       1.035802        28.1856 
 124   0.0000       1.037290        28.2261 
 125   0.0000       1.057302        28.7706 
 126   0.0000       1.093983        29.7688 
 127   0.0000       1.097081        29.8531 
 128   0.0000       1.129361        30.7315 
 129   0.0000       1.146215        31.1901 
 130   0.0000       1.180729        32.1293 
 131   0.0000       1.223930        33.3048 
 132   0.0000       1.284280        34.9470 
 133   0.0000       1.318830        35.8872 
 134   0.0000       1.331019        36.2189 
 135   0.0000       1.371640        37.3242 
 136   0.0000       1.379111        37.5275 
 137   0.0000       1.412529        38.4369 
 138   0.0000       1.462101        39.7858 
 139   0.0000       1.470001        40.0008 
 140   0.0000       1.531716        41.6801 
 141   0.0000       1.568680        42.6859 
 142   0.0000       1.624339        44.2005 
 143   0.0000       1.646806        44.8119 
 144   0.0000       1.730739        47.0958 
 145   0.0000       1.914049        52.0839 
 146   0.0000       1.971657        53.6515 
 147   0.0000       2.033829        55.3433 
 148   0.0000       2.161448        58.8160 

                    ********************************
                    * MULLIKEN POPULATION ANALYSIS *
                    ********************************

-----------------------
MULLIKEN ATOMIC CHARGES
-----------------------
   0 C :    0.297389
   1 C :   -0.259278
   2 C :   -0.302787
   3 C :   -0.015040
   4 O :   -0.517197
   5 H :    0.147642
   6 H :    0.142281
   7 H :    0.166656
   8 H :    0.142412
   9 H :    0.169858
  10 H :    0.138543
  11 H :    0.148237
  12 C :    0.001780
  13 H :    0.134019
  14 H :    0.130190
  15 O :   -0.527351
  16 C :    0.090998
  17 C :    0.083973
  18 C :   -0.322074
  19 C :   -0.012318
  20 O :   -0.505758
  21 H :    0.162791
  22 H :    0.167878
  23 O :   -0.600558
  24 H :    0.159040
  25 H :    0.130398
  26 H :    0.141244
  27 H :    0.148667
  28 H :    0.358363
Sum of atomic charges:   -0.0000000

--------------------------------
MULLIKEN REDUCED ORBITAL CHARGES
--------------------------------
  0 C s       :     3.191453  s :     3.191453
      pz      :     0.819196  p :     2.511158
      px      :     0.674561
      py      :     1.017401
  1 C s       :     3.304536  s :     3.304536
      pz      :     0.970463  p :     2.954742
      px      :     1.051276
      py      :     0.933004
  2 C s       :     3.315043  s :     3.315043
      pz      :     0.918944  p :     2.987744
      px      :     1.083091
      py      :     0.985709
  3 C s       :     3.266461  s :     3.266461
      pz      :     0.939246  p :     2.748579
      px      :     1.060190
      py      :     0.749144
  4 O s       :     3.940307  s :     3.940307
      pz      :     1.362114  p :     4.576890
      px      :     1.689517
      py      :     1.525258
  5 H s       :     0.852358  s :     0.852358
  6 H s       :     0.857719  s :     0.857719
  7 H s       :     0.833344  s :     0.833344
  8 H s       :     0.857588  s :     0.857588
  9 H s       :     0.830142  s :     0.830142
 10 H s       :     0.861457  s :     0.861457
 11 H s       :     0.851763  s :     0.851763
 12 C s       :     3.246023  s :     3.246023
      pz      :     0.898353  p :     2.752197
      px      :     0.921916
      py      :     0.931928
 13 H s       :     0.865981  s :     0.865981
 14 H s       :     0.869810  s :     0.869810
 15 O s       :     3.937739  s :     3.937739
      pz      :     1.613081  p :     4.589613
      px      :     1.299721
      py      :     1.676810
 16 C s       :     3.261804  s :     3.261804
      pz      :     1.034638  p :     2.647198
      px      :     0.936887
      py      :     0.675674
 17 C s       :     3.250090  s :     3.250090
      pz      :     0.926308  p :     2.665937
      px      :     1.060041
      py      :     0.679588
 18 C s       :     3.323845  s :     3.323845
      pz      :     0.996713  p :     2.998229
      px      :     1.073696
      py      :     0.927820
 19 C s       :     3.263716  s :     3.263716
      pz      :     0.693905  p :     2.748602
      px      :     1.084383
      py      :     0.970314
 20 O s       :     3.947733  s :     3.947733
      pz      :     1.313574  p :     4.558025
      px      :     1.837001
      py      :     1.407450
 21 H s       :     0.837209  s :     0.837209
 22 H s       :     0.832122  s :     0.832122
 23 O s       :     3.920202  s :     3.920202
      pz      :     1.813943  p :     4.680356
      px      :     1.453799
      py      :     1.412614
 24 H s       :     0.840960  s :     0.840960
 25 H s       :     0.869602  s :     0.869602
 26 H s       :     0.858756  s :     0.858756
 27 H s       :     0.851333  s :     0.851333
 28 H s       :     0.641637  s :     0.641637


                     *******************************
                     * LOEWDIN POPULATION ANALYSIS *
                     *******************************

----------------------
LOEWDIN ATOMIC CHARGES
----------------------
   0 C :    0.178563
   1 C :   -0.214939
   2 C :   -0.217949
   3 C :   -0.031523
   4 O :   -0.328163
   5 H :    0.097576
   6 H :    0.112478
   7 H :    0.129228
   8 H :    0.114702
   9 H :    0.122684
  10 H :    0.099313
  11 H :    0.105244
  12 C :   -0.047888
  13 H :    0.098886
  14 H :    0.092843
  15 O :   -0.324360
  16 C :    0.021961
  17 C :    0.035561
  18 C :   -0.241672
  19 C :   -0.031289
  20 O :   -0.314452
  21 H :    0.119654
  22 H :    0.119607
  23 O :   -0.407017
  24 H :    0.122825
  25 H :    0.102830
  26 H :    0.100715
  27 H :    0.105407
  28 H :    0.279172

-------------------------------
LOEWDIN REDUCED ORBITAL CHARGES
-------------------------------
  0 C s       :     2.953373  s :     2.953373
      pz      :     0.932554  p :     2.868064
      px      :     0.842171
      py      :     1.093338
  1 C s       :     2.976786  s :     2.976786
      pz      :     1.073030  p :     3.238153
      px      :     1.114909
      py      :     1.050214
  2 C s       :     2.970330  s :     2.970330
      pz      :     1.038838  p :     3.247618
      px      :     1.131004
      py      :     1.077776
  3 C s       :     2.986642  s :     2.986642
      pz      :     1.035812  p :     3.044881
      px      :     1.121550
      py      :     0.887518
  4 O s       :     3.604145  s :     3.604145
      pz      :     1.425203  p :     4.724017
      px      :     1.727845
      py      :     1.570969
  5 H s       :     0.902424  s :     0.902424
  6 H s       :     0.887522  s :     0.887522
  7 H s       :     0.870772  s :     0.870772
  8 H s       :     0.885298  s :     0.885298
  9 H s       :     0.877316  s :     0.877316
 10 H s       :     0.900687  s :     0.900687
 11 H s       :     0.894756  s :     0.894756
 12 C s       :     2.975090  s :     2.975090
      pz      :     0.998641  p :     3.072798
      px      :     1.044472
      py      :     1.029685
 13 H s       :     0.901114  s :     0.901114
 14 H s       :     0.907157  s :     0.907157
 15 O s       :     3.580754  s :     3.580754
      pz      :     1.658374  p :     4.743606
      px      :     1.370263
      py      :     1.714969
 16 C s       :     2.960326  s :     2.960326
      pz      :     1.103083  p :     3.017712
      px      :     1.065759
      py      :     0.848870
 17 C s       :     2.950804  s :     2.950804
      pz      :     1.050460  p :     3.013635
      px      :     1.105762
      py      :     0.857412
 18 C s       :     2.983255  s :     2.983255
      pz      :     1.084598  p :     3.258418
      px      :     1.123524
      py      :     1.050296
 19 C s       :     2.981124  s :     2.981124
      pz      :     0.836628  p :     3.050165
      px      :     1.136249
      py      :     1.077287
 20 O s       :     3.603434  s :     3.603434
      pz      :     1.380109  p :     4.711018
      px      :     1.862368
      py      :     1.468540
 21 H s       :     0.880346  s :     0.880346
 22 H s       :     0.880393  s :     0.880393
 23 O s       :     3.607874  s :     3.607874
      pz      :     1.829702  p :     4.799144
      px      :     1.500922
      py      :     1.468520
 24 H s       :     0.877175  s :     0.877175
 25 H s       :     0.897170  s :     0.897170
 26 H s       :     0.899285  s :     0.899285
 27 H s       :     0.894593  s :     0.894593
 28 H s       :     0.720828  s :     0.720828


                      *****************************
                      * MAYER POPULATION ANALYSIS *
                      *****************************

  NA   - Mulliken gross atomic population
  ZA   - Total nuclear charge
  QA   - Mulliken gross atomic charge
  VA   - Mayer's total valence
  BVA  - Mayer's bonded valence
  FA   - Mayer's free valence

  ATOM       NA         ZA         QA         VA         BVA        FA
  0 C      5.7026     6.0000     0.2974     3.6531     3.6531     0.0000
  1 C      6.2593     6.0000    -0.2593     3.7271     3.7271    -0.0000
  2 C      6.3028     6.0000    -0.3028     3.7625     3.7625    -0.0000
  3 C      6.0150     6.0000    -0.0150     3.6613     3.6613    -0.0000
  4 O      8.5172     8.0000    -0.5172     1.7815     1.7815     0.0000
  5 H      0.8524     1.0000     0.1476     0.9279     0.9279     0.0000
  6 H      0.8577     1.0000     0.1423     0.9339     0.9339     0.0000
  7 H      0.8333     1.0000     0.1667     0.9373     0.9373    -0.0000
  8 H      0.8576     1.0000     0.1424     0.9370     0.9370    -0.0000
  9 H      0.8301     1.0000     0.1699     0.9335     0.9335     0.0000
 10 H      0.8615     1.0000     0.1385     0.9281     0.9281    -0.0000
 11 H      0.8518     1.0000     0.1482     0.9287     0.9287    -0.0000
 12 C      5.9982     6.0000     0.0018     3.6100     3.6100     0.0000
 13 H      0.8660     1.0000     0.1340     0.9371     0.9371    -0.0000
 14 H      0.8698     1.0000     0.1302     0.9381     0.9381    -0.0000
 15 O      8.5274     8.0000    -0.5274     1.7338     1.7338     0.0000
 16 C      5.9090     6.0000     0.0910     3.5636     3.5636    -0.0000
 17 C      5.9160     6.0000     0.0840     3.6498     3.6498     0.0000
 18 C      6.3221     6.0000    -0.3221     3.7229     3.7229     0.0000
 19 C      6.0123     6.0000    -0.0123     3.6674     3.6674     0.0000
 20 O      8.5058     8.0000    -0.5058     1.7829     1.7829     0.0000
 21 H      0.8372     1.0000     0.1628     0.9339     0.9339    -0.0000
 22 H      0.8321     1.0000     0.1679     0.9250     0.9250    -0.0000
 23 O      8.6006     8.0000    -0.6006     1.7517     1.7517    -0.0000
 24 H      0.8410     1.0000     0.1590     0.9359     0.9359    -0.0000
 25 H      0.8696     1.0000     0.1304     0.9431     0.9431    -0.0000
 26 H      0.8588     1.0000     0.1412     0.9255     0.9255     0.0000
 27 H      0.8513     1.0000     0.1487     0.9271     0.9271    -0.0000
 28 H      0.6416     1.0000     0.3584     0.8360     0.8360    -0.0000

  Mayer bond orders larger than 0.100000
B(  0-C ,  1-C ) :   0.9469 B(  0-C ,  4-O ) :   0.8957 B(  0-C ,  5-H ) :   0.9218 
B(  0-C , 15-O ) :   0.8513 B(  1-C ,  2-C ) :   0.9540 B(  1-C ,  6-H ) :   0.9380 
B(  1-C ,  7-H ) :   0.9344 B(  2-C ,  3-C ) :   0.9553 B(  2-C ,  8-H ) :   0.9446 
B(  2-C ,  9-H ) :   0.9419 B(  3-C ,  4-O ) :   0.8339 B(  3-C , 10-H ) :   0.9345 
B(  3-C , 11-H ) :   0.9405 B( 12-C , 13-H ) :   0.9059 B( 12-C , 14-H ) :   0.9157 
B( 12-C , 15-O ) :   0.8318 B( 12-C , 16-C ) :   0.9039 B( 16-C , 17-C ) :   0.8749 
B( 16-C , 20-O ) :   0.8671 B( 16-C , 21-H ) :   0.9291 B( 17-C , 18-C ) :   0.9214 
B( 17-C , 22-H ) :   0.9341 B( 17-C , 23-O ) :   0.8991 B( 18-C , 19-C ) :   0.9387 
B( 18-C , 24-H ) :   0.9418 B( 18-C , 25-H ) :   0.9410 B( 19-C , 20-O ) :   0.8532 
B( 19-C , 26-H ) :   0.9316 B( 19-C , 27-H ) :   0.9373 B( 23-O , 28-H ) :   0.7969 


-------
TIMINGS
-------

Total SCF time: 0 days 0 hours 4 min 14 sec 

Total time                  ....     254.926 sec
Sum of individual times     ....     198.124 sec  ( 77.7%)

Fock matrix formation       ....     183.136 sec  ( 71.8%)
  XC integration            ....      55.899 sec  ( 30.5% of F)
    Basis function eval.    ....       1.435 sec  (  2.6% of XC)
    Density eval.           ....       1.526 sec  (  2.7% of XC)
    XC-Functional eval.     ....       0.401 sec  (  0.7% of XC)
    XC-Potential eval.      ....       0.589 sec  (  1.1% of XC)
Diagonalization             ....       1.778 sec  (  0.7%)
Density matrix formation    ....       0.006 sec  (  0.0%)
Population analysis         ....       2.439 sec  (  1.0%)
Initial guess               ....       1.065 sec  (  0.4%)
Orbital Transformation      ....       0.000 sec  (  0.0%)
Orbital Orthonormalization  ....       0.005 sec  (  0.0%)
DIIS solution               ....       0.002 sec  (  0.0%)
SOSCF solution              ....       1.409 sec  (  0.6%)
Grid generation             ....       8.288 sec  (  3.3%)

-------------------------   --------------------
FINAL SINGLE POINT ENERGY      -652.859434712607
-------------------------   --------------------

                                *** OPTIMIZATION RUN DONE ***

                            ***************************************
                            *     ORCA property calculations      *
                            ***************************************

                                    ---------------------
                                    Active property flags
                                    ---------------------
   (+) Dipole Moment


------------------------------------------------------------------------------
                       ORCA ELECTRIC PROPERTIES CALCULATION
------------------------------------------------------------------------------

Dipole Moment Calculation                       ... on
Quadrupole Moment Calculation                   ... off
Polarizability Calculation                      ... off
GBWName                                         ... project_8053/ensemble_330_180.gbw
Electron density file                           ... project_8053/ensemble_330_180.scfp
The origin for moment calculation is the CENTER OF MASS  = (-43.362533, 49.467934 90.299625)

-------------
DIPOLE MOMENT
-------------
                                X             Y             Z
Electronic contribution:     -2.34000      -3.32447      -3.00318
Nuclear contribution   :      2.94582       3.79923       3.93850
                        -----------------------------------------
Total Dipole Moment    :      0.60582       0.47476       0.93532
                        -----------------------------------------
Magnitude (a.u.)       :      1.21130
Magnitude (Debye)      :      3.07888



--------------------
Rotational spectrum 
--------------------
 
Rotational constants in cm-1:     0.048395     0.014381     0.013461 
Rotational constants in MHz :  1450.844067   431.122831   403.539029 

 Dipole components along the rotational axes: 
x,y,z [a.u.] :     0.367115     0.549826     1.014971 
x,y,z [Debye]:     0.933133     1.397546     2.579851 

 

Timings for individual modules:

Sum of individual times         ...     6723.931 sec (= 112.066 min)
GTO integral calculation        ...      181.391 sec (=   3.023 min)   2.7 %
SCF iterations                  ...     6120.753 sec (= 102.013 min)  91.0 %
SCF Gradient evaluation         ...      316.466 sec (=   5.274 min)   4.7 %
Geometry relaxation             ...      105.321 sec (=   1.755 min)   1.6 %
                             ****ORCA TERMINATED NORMALLY****
TOTAL RUN TIME: 0 days 1 hours 57 minutes 29 seconds 644 msec
