
                                 *****************
                                 * O   R   C   A *
                                 *****************

           --- An Ab Initio, DFT and Semiempirical electronic structure package ---

                  #######################################################
                  #                        -***-                        #
                  #          Department of theory and spectroscopy      #
                  #               Directorship: Frank Neese             #
                  #        Max Planck Institute fuer Kohlenforschung    #
                  #                Kaiser Wilhelm Platz 1               #
                  #                 D-45470 Muelheim/Ruhr               #
                  #                      Germany                        #
                  #                                                     #
                  #                  All rights reserved                #
                  #                        -***-                        #
                  #######################################################


                         Program Version 4.2.1 -  RELEASE  -


 With contributions from (in alphabetic order):
   Daniel Aravena         : Magnetic Suceptibility
   Michael Atanasov       : Ab Initio Ligand Field Theory (pilot matlab implementation)
   Alexander A. Auer      : GIAO ZORA, VPT2
   Ute Becker             : Parallelization
   Giovanni Bistoni       : ED, misc. LED, open-shell LED, HFLD
   Martin Brehm           : Molecular dynamics
   Dmytro Bykov           : SCF Hessian
   Vijay G. Chilkuri      : MRCI spin determinant printing, contributions to CSF-ICE
   Dipayan Datta          : RHF DLPNO-CCSD density
   Achintya Kumar Dutta   : EOM-CC, STEOM-CC
   Dmitry Ganyushin       : Spin-Orbit,Spin-Spin,Magnetic field MRCI
   Miquel Garcia          : C-PCM Hessian, Gaussian charge scheme
   Yang Guo               : DLPNO-NEVPT2, CIM, IAO-localization
   Andreas Hansen         : Spin unrestricted coupled pair/coupled cluster methods
   Benjamin Helmich-Paris : CASSCF linear response (MC-RPA)
   Lee Huntington         : MR-EOM, pCC
   Robert Izsak           : Overlap fitted RIJCOSX, COSX-SCS-MP3, EOM
   Christian Kollmar      : KDIIS, OOCD, Brueckner-CCSD(T), CCSD density
   Simone Kossmann        : Meta GGA functionals, TD-DFT gradient, OOMP2, MP2 Hessian
   Martin Krupicka        : AUTO-CI
   Lucas Lang             : DCDCAS
   Dagmar Lenk            : GEPOL surface, SMD
   Dimitrios Liakos       : Extrapolation schemes; Compound Job, initial MDCI parallelization
   Dimitrios Manganas     : Further ROCIS development; embedding schemes
   Dimitrios Pantazis     : SARC Basis sets
   Taras Petrenko         : DFT Hessian,TD-DFT gradient, ASA, ECA, R-Raman, ABS, FL, XAS/XES, NRVS
   Peter Pinski           : DLPNO-MP2, DLPNO-MP2 Gradient
   Christoph Reimann      : Effective Core Potentials
   Marius Retegan         : Local ZFS, SOC
   Christoph Riplinger    : Optimizer, TS searches, QM/MM, DLPNO-CCSD(T), (RO)-DLPNO pert. Triples
   Tobias Risthaus        : Range-separated hybrids, TD-DFT gradient, RPA, STAB
   Michael Roemelt        : Original ROCIS implementation
   Masaaki Saitow         : Open-shell DLPNO-CCSD energy and density
   Barbara Sandhoefer     : DKH picture change effects
   Avijit Sen             : IP-ROCIS
   Kantharuban Sivalingam : CASSCF convergence, NEVPT2, FIC-MRCI
   Bernardo de Souza      : ESD, SOC TD-DFT
   Georgi Stoychev        : AutoAux, RI-MP2 NMR
   Willem Van den Heuvel  : Paramagnetic NMR
   Boris Wezisla          : Elementary symmetry handling
   Frank Wennmohs         : Technical directorship


 We gratefully acknowledge several colleagues who have allowed us to
 interface, adapt or use parts of their codes:
   Stefan Grimme, W. Hujo, H. Kruse,             : VdW corrections, initial TS optimization,
                  C. Bannwarth                     DFT functionals, gCP, sTDA/sTD-DF
   Ed Valeev, F. Pavosevic, A. Kumar             : LibInt (2-el integral package), F12 methods
   Garnet Chan, S. Sharma, J. Yang, R. Olivares  : DMRG
   Ulf Ekstrom                                   : XCFun DFT Library
   Mihaly Kallay                                 : mrcc  (arbitrary order and MRCC methods)
   Andreas Klamt, Michael Diedenhofen            : otool_cosmo (COSMO solvation model)
   Jiri Pittner, Ondrej Demel                    : Mk-CCSD
   Frank Weinhold                                : gennbo (NPA and NBO analysis)
   Christopher J. Cramer and Donald G. Truhlar   : smd solvation model
   Lars Goerigk                                  : TD-DFT with DH, B97 family of functionals
   V. Asgeirsson, H. Jonsson                     : NEB implementation
   FAccTs GmbH                                   : IRC, NEB, NEB-TS, Multilevel, MM, QM/MM, CI optimization
   S Lehtola, MJT Oliveira, MAL Marques          : LibXC Library


 Your calculation uses the libint2 library for the computation of 2-el integrals
 For citations please refer to: http://libint.valeyev.net

 Your ORCA version has been built with support for libXC version: 4.2.3
 For citations please refer to: https://tddft.org/programs/libxc/

 This ORCA versions uses:
   CBLAS   interface :  Fast vector & matrix operations
   LAPACKE interface :  Fast linear algebra routines
   SCALAPACK package :  Parallel linear algebra routines


----- Orbital basis set information -----
Your calculation utilizes the basis: 6-31G
   H-He, Li-Ne : W. J. Hehre, R. Ditchfield and J.A. Pople, J. Chem. Phys. 56, 2257 (1972).
                 Note: He and Ne are unpublished basis sets taken from the Gaussian program.
                 Note: Li and B from J. D. Dill and J. A. Pople, J. Chem. Phys. 62, 2921 (1975).
   Na - Ar     : M. M. Francl, W. J. Pietro, W. J. Hehre, J. S. Binkley, M. S. Gordon, 
                 D. J. DeFrees and J. A. Pople, J. Chem. Phys. 77, 3654 (1982).
   K - Zn      : V. A. Rassolov, J. A. Pople, M. A. Ratner, and T. L. Windus, J. Chem. Phys. 109, 1223 (1998).

================================================================================
                                        WARNINGS
                       Please study these warnings very carefully!
================================================================================


WARNING: Geometry Optimization
  ===> : Switching off AutoStart
         For restart on a previous wavefunction, please use MOREAD

INFO   : the flag for use of LIBINT has been found!

================================================================================
                                       INPUT FILE
================================================================================
NAME = ensemble_345_75.inp
|  1> # Test redundant internal optimization
|  2> #
|  3> ! RKS B3LYP  Opt TightSCF SmallPrint
|  4> 
|  5> %basis
|  6>         Basis "6-31G"
|  7> end
|  8> 
|  9> %geom
| 10> Constraints
| 11> { D 4  0  19  14  345.0   C } # D for Dihedral angle
| 12> { D 0  19  14  12  75.0   C } # D for Dihedral angle
| 13> { D 0  4  3  2   C } # D for Dihedral angle
| 14> { D 4  3  2  1   C } # D for Dihedral angle
| 15> { D 3  2  1  0   C } # D for Dihedral angle
| 16> { D 2  1  0  4   C } # D for Dihedral angle
| 17> { D 1  0  4  3   C } # D for Dihedral angle
| 18> { D 14  15  16  17   C } # D for Dihedral angle
| 19> { D 15  16  17  12   C } # D for Dihedral angle
| 20> { D 16  17  12  14   C } # D for Dihedral angle
| 21> { D 17  12  14  15   C } # D for Dihedral angle
| 22> { D 12  14  15  16   C } # D for Dihedral angle
| 23> end
| 24> end
| 25> 
| 26> 
| 27> #%pal 
| 28> #nprocs 8
| 29> #end
| 30> 
| 31> * xyz 0 1
| 32> C  -21.048   26.222   46.251
| 33> C  -20.361   27.558   45.944
| 34> C  -20.329   28.222   47.341
| 35> C  -20.110   27.022   48.296
| 36> O  -20.473   25.807   47.535
| 37> H  -20.833   25.428   45.533
| 38> H  -19.344   27.382   45.576
| 39> H  -20.898   28.157   45.201
| 40> H  -19.543   28.978   47.434
| 41> H  -21.289   28.710   47.548
| 42> H  -20.733   27.082   49.195
| 43> H  -19.064   26.913   48.597
| 44> C  -22.721   26.657   48.771
| 45> H  -22.883   26.101   49.708
| 46> C  -23.040   25.792   47.547
| 47> C  -24.584   25.865   47.505
| 48> C  -24.882   27.306   47.989
| 49> O  -23.660   27.780   48.675
| 50> H  -21.715   27.081   48.776
| 51> O  -22.472   26.381   46.366
| 52> H  -22.666   24.766   47.636
| 53> H  -24.992   25.667   46.509
| 54> H  -25.016   25.129   48.195
| 55> H  -25.725   27.349   48.688
| 56> H  -25.074   27.994   47.160
| 57> *
| 58> 
| 59>                          ****END OF INPUT****
================================================================================

                       *****************************
                       * Geometry Optimization Run *
                       *****************************

Geometry optimization settings:
Update method            Update   .... BFGS
Choice of coordinates    CoordSys .... Z-matrix Internals
Initial Hessian          InHess   .... Almoef's Model

Convergence Tolerances:
Energy Change            TolE     ....  5.0000e-06 Eh
Max. Gradient            TolMAXG  ....  3.0000e-04 Eh/bohr
RMS Gradient             TolRMSG  ....  1.0000e-04 Eh/bohr
Max. Displacement        TolMAXD  ....  4.0000e-03 bohr
RMS Displacement         TolRMSD  ....  2.0000e-03 bohr
Strict Convergence                ....  False
------------------------------------------------------------------------------
                        ORCA OPTIMIZATION COORDINATE SETUP
------------------------------------------------------------------------------

The optimization will be done in new redundant internal coordinates
Making redundant internal coordinates   ...  (new redundants) done
Evaluating the initial hessian          ...  (Almloef) done
Evaluating the coordinates              ...  done
Calculating the B-matrix                .... done
Calculating the G-matrix                .... done
Diagonalizing the G-matrix              .... done
Imposing constraints:
 Iter   0:  RMS(Cart)=    0.0001931764 RMS(Int)=    0.0000754042
 Iter   1:  RMS(Cart)=    0.0001064428 RMS(Int)=    0.0000427242
 Iter   2:  RMS(Cart)=    0.0000590024 RMS(Int)=    0.0000253829
 Iter   3:  RMS(Cart)=    0.0000330042 RMS(Int)=    0.0000166895
 Iter   4:  RMS(Cart)=    0.0000187358 RMS(Int)=    0.0000127352
 Iter   5:  RMS(Cart)=    0.0000109029 RMS(Int)=    0.0000110722
 Iter   6:  RMS(Cart)=    0.0000066140 RMS(Int)=    0.0000103369
 Iter   7:  RMS(Cart)=    0.0000042840 RMS(Int)=    0.0000099329
 Iter   8:  RMS(Cart)=    0.0000030348 RMS(Int)=    0.0000096428
 Iter   9:  RMS(Cart)=    0.0000023710 RMS(Int)=    0.0000093936
 Iter  10:  RMS(Cart)=    0.0000020134 RMS(Int)=    0.0000091614
 Iter  11:  RMS(Cart)=    0.0000018110 RMS(Int)=    0.0000089385
 Iter  12:  RMS(Cart)=    0.0000016868 RMS(Int)=    0.0000087222
 Iter  13:  RMS(Cart)=    0.0000016027 RMS(Int)=    0.0000085117
 Iter  14:  RMS(Cart)=    0.0000015400 RMS(Int)=    0.0000083065
 Iter  15:  RMS(Cart)=    0.0000014891 RMS(Int)=    0.0000081064
 Iter  16:  RMS(Cart)=    0.0000014450 RMS(Int)=    0.0000079112
 Iter  17:  RMS(Cart)=    0.0000014051 RMS(Int)=    0.0000077209
 Iter  18:  RMS(Cart)=    0.0000013678 RMS(Int)=    0.0000075353
 Iter  19:  RMS(Cart)=    0.0000013324 RMS(Int)=    0.0000073542
 Iter  20:  RMS(Cart)=    0.0000012984 RMS(Int)=    0.0000071776
 Iter  21:  RMS(Cart)=    0.0000012656 RMS(Int)=    0.0000070054
 Iter  22:  RMS(Cart)=    0.0000012337 RMS(Int)=    0.0000068374
 Iter  23:  RMS(Cart)=    0.0000012028 RMS(Int)=    0.0000066735
 Iter  24:  RMS(Cart)=    0.0000011727 RMS(Int)=    0.0000065137
 Iter  25:  RMS(Cart)=    0.0000011434 RMS(Int)=    0.0000063578
 Iter  26:  RMS(Cart)=    0.0000011149 RMS(Int)=    0.0000062057
 Iter  27:  RMS(Cart)=    0.0000010871 RMS(Int)=    0.0000060573
 Iter  28:  RMS(Cart)=    0.0000010600 RMS(Int)=    0.0000059126
 Iter  29:  RMS(Cart)=    0.0000010336 RMS(Int)=    0.0000057714
 Iter  30:  RMS(Cart)=    0.0000010079 RMS(Int)=    0.0000056337
 Iter  31:  RMS(Cart)=    0.0000009828 RMS(Int)=    0.0000054994
 Iter  32:  RMS(Cart)=    0.0000009584 RMS(Int)=    0.0000053683
 Iter  33:  RMS(Cart)=    0.0000009346 RMS(Int)=    0.0000052405
 Iter  34:  RMS(Cart)=    0.0000009114 RMS(Int)=    0.0000051158
 Iter  35:  RMS(Cart)=    0.0000008887 RMS(Int)=    0.0000049941
 Iter  36:  RMS(Cart)=    0.0000008667 RMS(Int)=    0.0000048754
 Iter  37:  RMS(Cart)=    0.0000008452 RMS(Int)=    0.0000047596
 Iter  38:  RMS(Cart)=    0.0000008243 RMS(Int)=    0.0000046467
 Iter  39:  RMS(Cart)=    0.0000008039 RMS(Int)=    0.0000045365
 Iter  40:  RMS(Cart)=    0.0000007840 RMS(Int)=    0.0000044290
 Iter  41:  RMS(Cart)=    0.0000007646 RMS(Int)=    0.0000043241
 Iter  42:  RMS(Cart)=    0.0000007457 RMS(Int)=    0.0000042217
 Iter  43:  RMS(Cart)=    0.0000007272 RMS(Int)=    0.0000041219
 Iter  44:  RMS(Cart)=    0.0000007093 RMS(Int)=    0.0000040245
 Iter  45:  RMS(Cart)=    0.0000006918 RMS(Int)=    0.0000039294
 Iter  46:  RMS(Cart)=    0.0000006747 RMS(Int)=    0.0000038367
 Iter  47:  RMS(Cart)=    0.0000006580 RMS(Int)=    0.0000037463
 Iter  48:  RMS(Cart)=    0.0000006418 RMS(Int)=    0.0000036580
 Iter  49:  RMS(Cart)=    0.0000006260 RMS(Int)=    0.0000035719
 Iter  50:  RMS(Cart)=    0.0000006106 RMS(Int)=    0.0000034878
 Iter  51:  RMS(Cart)=    0.0000005955 RMS(Int)=    0.0000034059
 Iter  52:  RMS(Cart)=    0.0000005809 RMS(Int)=    0.0000033259
 Iter  53:  RMS(Cart)=    0.0000005666 RMS(Int)=    0.0000032478
 Iter  54:  RMS(Cart)=    0.0000005527 RMS(Int)=    0.0000031717
 Iter  55:  RMS(Cart)=    0.0000005391 RMS(Int)=    0.0000030974
 Iter  56:  RMS(Cart)=    0.0000005258 RMS(Int)=    0.0000030249
 Iter  57:  RMS(Cart)=    0.0000005129 RMS(Int)=    0.0000029541
 Iter  58:  RMS(Cart)=    0.0000005003 RMS(Int)=    0.0000028851
 Iter  59:  RMS(Cart)=    0.0000004881 RMS(Int)=    0.0000028178
 Iter  60:  RMS(Cart)=    0.0000004761 RMS(Int)=    0.0000027520
 Iter  61:  RMS(Cart)=    0.0000004644 RMS(Int)=    0.0000026879
 Iter  62:  RMS(Cart)=    0.0000004531 RMS(Int)=    0.0000026253
 Iter  63:  RMS(Cart)=    0.0000004420 RMS(Int)=    0.0000025643
 Iter  64:  RMS(Cart)=    0.0000004311 RMS(Int)=    0.0000025047
 Iter  65:  RMS(Cart)=    0.0000004206 RMS(Int)=    0.0000024466
 Iter  66:  RMS(Cart)=    0.0000004103 RMS(Int)=    0.0000023899
 Iter  67:  RMS(Cart)=    0.0000004003 RMS(Int)=    0.0000023345
 Iter  68:  RMS(Cart)=    0.0000003905 RMS(Int)=    0.0000022805
 Iter  69:  RMS(Cart)=    0.0000003810 RMS(Int)=    0.0000022278
 Iter  70:  RMS(Cart)=    0.0000003717 RMS(Int)=    0.0000021763
 Iter  71:  RMS(Cart)=    0.0000003626 RMS(Int)=    0.0000021262
 Iter  72:  RMS(Cart)=    0.0000003537 RMS(Int)=    0.0000020772
 Iter  73:  RMS(Cart)=    0.0000003451 RMS(Int)=    0.0000020294
 Iter  74:  RMS(Cart)=    0.0000003367 RMS(Int)=    0.0000019827
 Iter  75:  RMS(Cart)=    0.0000003285 RMS(Int)=    0.0000019372
 Iter  76:  RMS(Cart)=    0.0000003205 RMS(Int)=    0.0000018928
 Iter  77:  RMS(Cart)=    0.0000003127 RMS(Int)=    0.0000018495
 Iter  78:  RMS(Cart)=    0.0000003051 RMS(Int)=    0.0000018072
 Iter  79:  RMS(Cart)=    0.0000002977 RMS(Int)=    0.0000017659
 Iter  80:  RMS(Cart)=    0.0000002904 RMS(Int)=    0.0000017256
 Iter  81:  RMS(Cart)=    0.0000002834 RMS(Int)=    0.0000016863
 Iter  82:  RMS(Cart)=    0.0000002765 RMS(Int)=    0.0000016479
 Iter  83:  RMS(Cart)=    0.0000002698 RMS(Int)=    0.0000016105
 Iter  84:  RMS(Cart)=    0.0000002633 RMS(Int)=    0.0000015740
 Iter  85:  RMS(Cart)=    0.0000002569 RMS(Int)=    0.0000015383
 Iter  86:  RMS(Cart)=    0.0000002506 RMS(Int)=    0.0000015035
 Iter  87:  RMS(Cart)=    0.0000002446 RMS(Int)=    0.0000014695
 Iter  88:  RMS(Cart)=    0.0000002387 RMS(Int)=    0.0000014364
 Iter  89:  RMS(Cart)=    0.0000002329 RMS(Int)=    0.0000014040
 Iter  90:  RMS(Cart)=    0.0000002272 RMS(Int)=    0.0000013725
 Iter  91:  RMS(Cart)=    0.0000002217 RMS(Int)=    0.0000013417
 Iter  92:  RMS(Cart)=    0.0000002164 RMS(Int)=    0.0000013116
 Iter  93:  RMS(Cart)=    0.0000002112 RMS(Int)=    0.0000012822
 Iter  94:  RMS(Cart)=    0.0000002061 RMS(Int)=    0.0000012536
 Iter  95:  RMS(Cart)=    0.0000002011 RMS(Int)=    0.0000012256
 Iter  96:  RMS(Cart)=    0.0000001962 RMS(Int)=    0.0000011984
 Iter  97:  RMS(Cart)=    0.0000001915 RMS(Int)=    0.0000011717
 Iter  98:  RMS(Cart)=    0.0000001869 RMS(Int)=    0.0000011457
 Iter  99:  RMS(Cart)=    0.0000001824 RMS(Int)=    0.0000011204
 RMS(Cart) too big - taking linear step, building new B-matrix and trying again
Imposing constraints:
 Iter   0:  RMS(Cart)=    0.0001064449 RMS(Int)=    0.0000427242
 Iter   1:  RMS(Cart)=    0.0000590036 RMS(Int)=    0.0000253829
 Iter   2:  RMS(Cart)=    0.0000330048 RMS(Int)=    0.0000166893
 Iter   3:  RMS(Cart)=    0.0000187362 RMS(Int)=    0.0000127348
 Iter   4:  RMS(Cart)=    0.0000109031 RMS(Int)=    0.0000110717
 Iter   5:  RMS(Cart)=    0.0000066141 RMS(Int)=    0.0000103363
 Iter   6:  RMS(Cart)=    0.0000042841 RMS(Int)=    0.0000099324
 Iter   7:  RMS(Cart)=    0.0000030348 RMS(Int)=    0.0000096422
 Iter   8:  RMS(Cart)=    0.0000023710 RMS(Int)=    0.0000093930
 Iter   9:  RMS(Cart)=    0.0000020134 RMS(Int)=    0.0000091608
 Iter  10:  RMS(Cart)=    0.0000018109 RMS(Int)=    0.0000089379
 Iter  11:  RMS(Cart)=    0.0000016867 RMS(Int)=    0.0000087216
 Iter  12:  RMS(Cart)=    0.0000016027 RMS(Int)=    0.0000085111
 Iter  13:  RMS(Cart)=    0.0000015400 RMS(Int)=    0.0000083059
 Iter  14:  RMS(Cart)=    0.0000014891 RMS(Int)=    0.0000081058
 Iter  15:  RMS(Cart)=    0.0000014450 RMS(Int)=    0.0000079106
 Iter  16:  RMS(Cart)=    0.0000014050 RMS(Int)=    0.0000077203
 Iter  17:  RMS(Cart)=    0.0000013678 RMS(Int)=    0.0000075347
 Iter  18:  RMS(Cart)=    0.0000013323 RMS(Int)=    0.0000073537
 Iter  19:  RMS(Cart)=    0.0000012984 RMS(Int)=    0.0000071771
 Iter  20:  RMS(Cart)=    0.0000012655 RMS(Int)=    0.0000070048
 Iter  21:  RMS(Cart)=    0.0000012337 RMS(Int)=    0.0000068368
 Iter  22:  RMS(Cart)=    0.0000012027 RMS(Int)=    0.0000066730
 Iter  23:  RMS(Cart)=    0.0000011726 RMS(Int)=    0.0000065131
 Iter  24:  RMS(Cart)=    0.0000011433 RMS(Int)=    0.0000063572
 Iter  25:  RMS(Cart)=    0.0000011148 RMS(Int)=    0.0000062051
 Iter  26:  RMS(Cart)=    0.0000010870 RMS(Int)=    0.0000060568
 Iter  27:  RMS(Cart)=    0.0000010599 RMS(Int)=    0.0000059121
 Iter  28:  RMS(Cart)=    0.0000010335 RMS(Int)=    0.0000057709
 Iter  29:  RMS(Cart)=    0.0000010078 RMS(Int)=    0.0000056332
 Iter  30:  RMS(Cart)=    0.0000009828 RMS(Int)=    0.0000054989
 Iter  31:  RMS(Cart)=    0.0000009583 RMS(Int)=    0.0000053679
 Iter  32:  RMS(Cart)=    0.0000009345 RMS(Int)=    0.0000052400
 Iter  33:  RMS(Cart)=    0.0000009113 RMS(Int)=    0.0000051153
 Iter  34:  RMS(Cart)=    0.0000008887 RMS(Int)=    0.0000049937
 Iter  35:  RMS(Cart)=    0.0000008667 RMS(Int)=    0.0000048750
 Iter  36:  RMS(Cart)=    0.0000008452 RMS(Int)=    0.0000047592
 Iter  37:  RMS(Cart)=    0.0000008242 RMS(Int)=    0.0000046462
 Iter  38:  RMS(Cart)=    0.0000008038 RMS(Int)=    0.0000045360
 Iter  39:  RMS(Cart)=    0.0000007839 RMS(Int)=    0.0000044285
 Iter  40:  RMS(Cart)=    0.0000007645 RMS(Int)=    0.0000043236
 Iter  41:  RMS(Cart)=    0.0000007456 RMS(Int)=    0.0000042213
 Iter  42:  RMS(Cart)=    0.0000007272 RMS(Int)=    0.0000041215
 Iter  43:  RMS(Cart)=    0.0000007092 RMS(Int)=    0.0000040241
 Iter  44:  RMS(Cart)=    0.0000006917 RMS(Int)=    0.0000039290
 Iter  45:  RMS(Cart)=    0.0000006746 RMS(Int)=    0.0000038363
 Iter  46:  RMS(Cart)=    0.0000006580 RMS(Int)=    0.0000037459
 Iter  47:  RMS(Cart)=    0.0000006418 RMS(Int)=    0.0000036576
 Iter  48:  RMS(Cart)=    0.0000006260 RMS(Int)=    0.0000035715
 Iter  49:  RMS(Cart)=    0.0000006105 RMS(Int)=    0.0000034875
 Iter  50:  RMS(Cart)=    0.0000005955 RMS(Int)=    0.0000034055
 Iter  51:  RMS(Cart)=    0.0000005808 RMS(Int)=    0.0000033255
 Iter  52:  RMS(Cart)=    0.0000005666 RMS(Int)=    0.0000032475
 Iter  53:  RMS(Cart)=    0.0000005526 RMS(Int)=    0.0000031713
 Iter  54:  RMS(Cart)=    0.0000005390 RMS(Int)=    0.0000030970
 Iter  55:  RMS(Cart)=    0.0000005258 RMS(Int)=    0.0000030245
 Iter  56:  RMS(Cart)=    0.0000005129 RMS(Int)=    0.0000029538
 Iter  57:  RMS(Cart)=    0.0000005003 RMS(Int)=    0.0000028848
 Iter  58:  RMS(Cart)=    0.0000004880 RMS(Int)=    0.0000028174
 Iter  59:  RMS(Cart)=    0.0000004761 RMS(Int)=    0.0000027517
 Iter  60:  RMS(Cart)=    0.0000004644 RMS(Int)=    0.0000026876
 Iter  61:  RMS(Cart)=    0.0000004530 RMS(Int)=    0.0000026250
 Iter  62:  RMS(Cart)=    0.0000004419 RMS(Int)=    0.0000025640
 Iter  63:  RMS(Cart)=    0.0000004311 RMS(Int)=    0.0000025044
 Iter  64:  RMS(Cart)=    0.0000004206 RMS(Int)=    0.0000024463
 Iter  65:  RMS(Cart)=    0.0000004103 RMS(Int)=    0.0000023896
 Iter  66:  RMS(Cart)=    0.0000004002 RMS(Int)=    0.0000023342
 Iter  67:  RMS(Cart)=    0.0000003905 RMS(Int)=    0.0000022802
 Iter  68:  RMS(Cart)=    0.0000003809 RMS(Int)=    0.0000022275
 Iter  69:  RMS(Cart)=    0.0000003716 RMS(Int)=    0.0000021761
 Iter  70:  RMS(Cart)=    0.0000003626 RMS(Int)=    0.0000021259
 Iter  71:  RMS(Cart)=    0.0000003537 RMS(Int)=    0.0000020769
 Iter  72:  RMS(Cart)=    0.0000003451 RMS(Int)=    0.0000020291
 Iter  73:  RMS(Cart)=    0.0000003367 RMS(Int)=    0.0000019825
 Iter  74:  RMS(Cart)=    0.0000003285 RMS(Int)=    0.0000019370
 Iter  75:  RMS(Cart)=    0.0000003205 RMS(Int)=    0.0000018926
 Iter  76:  RMS(Cart)=    0.0000003127 RMS(Int)=    0.0000018492
 Iter  77:  RMS(Cart)=    0.0000003051 RMS(Int)=    0.0000018069
 Iter  78:  RMS(Cart)=    0.0000002977 RMS(Int)=    0.0000017656
 Iter  79:  RMS(Cart)=    0.0000002904 RMS(Int)=    0.0000017254
 Iter  80:  RMS(Cart)=    0.0000002834 RMS(Int)=    0.0000016861
 Iter  81:  RMS(Cart)=    0.0000002765 RMS(Int)=    0.0000016477
 Iter  82:  RMS(Cart)=    0.0000002698 RMS(Int)=    0.0000016103
 Iter  83:  RMS(Cart)=    0.0000002632 RMS(Int)=    0.0000015737
 Iter  84:  RMS(Cart)=    0.0000002568 RMS(Int)=    0.0000015381
 Iter  85:  RMS(Cart)=    0.0000002506 RMS(Int)=    0.0000015033
 Iter  86:  RMS(Cart)=    0.0000002445 RMS(Int)=    0.0000014693
 Iter  87:  RMS(Cart)=    0.0000002386 RMS(Int)=    0.0000014362
 Iter  88:  RMS(Cart)=    0.0000002328 RMS(Int)=    0.0000014038
 Iter  89:  RMS(Cart)=    0.0000002272 RMS(Int)=    0.0000013723
 Iter  90:  RMS(Cart)=    0.0000002217 RMS(Int)=    0.0000013415
 Iter  91:  RMS(Cart)=    0.0000002164 RMS(Int)=    0.0000013114
 Iter  92:  RMS(Cart)=    0.0000002111 RMS(Int)=    0.0000012820
 Iter  93:  RMS(Cart)=    0.0000002060 RMS(Int)=    0.0000012534
 Iter  94:  RMS(Cart)=    0.0000002011 RMS(Int)=    0.0000012255
 Iter  95:  RMS(Cart)=    0.0000001962 RMS(Int)=    0.0000011982
 Iter  96:  RMS(Cart)=    0.0000001915 RMS(Int)=    0.0000011715
 Iter  97:  RMS(Cart)=    0.0000001869 RMS(Int)=    0.0000011456
 Iter  98:  RMS(Cart)=    0.0000001824 RMS(Int)=    0.0000011202
 Iter  99:  RMS(Cart)=    0.0000001780 RMS(Int)=    0.0000010954
 RMS(Cart) too big - taking linear step, building new B-matrix and trying again
Imposing constraints:
 Iter   0:  RMS(Cart)=    0.0000590042 RMS(Int)=    0.0000253829
 Iter   1:  RMS(Cart)=    0.0000330052 RMS(Int)=    0.0000166892
 Iter   2:  RMS(Cart)=    0.0000187364 RMS(Int)=    0.0000127347
 Iter   3:  RMS(Cart)=    0.0000109032 RMS(Int)=    0.0000110716
 Iter   4:  RMS(Cart)=    0.0000066141 RMS(Int)=    0.0000103362
 Iter   5:  RMS(Cart)=    0.0000042841 RMS(Int)=    0.0000099322
CONVERGED
Small eigenvalue found = 1.140e-02
Small eigenvalue found = 1.966e-02
Small eigenvalue found = 2.323e-02
The first mode is                       ....   80
The number of degrees of freedom        ....   69
Storing new coordinates                 .... done

    -----------------------------------------------------------------
                    Redundant Internal Coordinates


    -----------------------------------------------------------------
         Definition                    Initial Value    Approx d2E/dq
    -----------------------------------------------------------------
      1. B(C   1,C   0)                  1.5333         0.369027   
      2. B(C   2,C   1)                  1.5471         0.350825   
      3. B(C   3,C   2)                  1.5492         0.348147   
      4. B(O   4,C   0)                  1.4668         0.422031   
      5. B(O   4,C   3)                  1.4789         0.403699   
      6. B(H   5,C   0)                  1.0919         0.357632   
      7. B(H   6,C   1)                  1.0958         0.352561   
      8. B(H   7,C   1)                  1.0951         0.353431   
      9. B(H   8,C   2)                  1.0945         0.354166   
     10. B(H   9,C   2)                  1.0966         0.351438   
     11. B(H  10,C   3)                  1.0954         0.353010   
     12. B(H  11,C   3)                  1.0939         0.354989   
     13. B(H  13,C  12)                  1.1015         0.345177   
     14. B(C  14,C  12)                  1.5324         0.370334   
     15. B(C  15,C  14)                  1.5463         0.351868   
     16. B(C  16,C  15)                  1.5491         0.348331   
     17. B(O  17,C  12)                  1.4670         0.421735   
     18. B(O  17,C  16)                  1.4794         0.402977   
     19. B(H  18,C  12)                  1.0917         0.357841   
     20. B(O  19,C   0)                  1.4375         0.470069   
     21. B(O  19,C  14)                  1.4368         0.471257   
     22. B(H  20,C  14)                  1.0957         0.352689   
     23. B(H  21,C  15)                  1.0944         0.354342   
     24. B(H  22,C  15)                  1.0975         0.350364   
     25. B(H  23,C  16)                  1.0959         0.352319   
     26. B(H  24,C  16)                  1.0943         0.354482   
     27. A(C   1,C   0,H   5)          114.4380         0.323302   
     28. A(H   5,C   0,O  19)          109.1552         0.334458   
     29. A(O   4,C   0,H   5)          107.0218         0.328541   
     30. A(C   1,C   0,O   4)          104.2476         0.367935   
     31. A(O   4,C   0,O  19)          110.4637         0.381216   
     32. A(C   1,C   0,O  19)          111.3135         0.374825   
     33. A(C   2,C   1,H   7)          112.8319         0.320016   
     34. A(C   2,C   1,H   6)          110.6706         0.319888   
     35. A(C   0,C   1,H   6)          110.0677         0.322546   
     36. A(C   0,C   1,C   2)          101.6801         0.358729   
     37. A(C   0,C   1,H   7)          113.1240         0.322677   
     38. A(H   6,C   1,H   7)          108.3682         0.289027   
     39. A(C   1,C   2,H   9)          110.0799         0.319721   
     40. A(C   1,C   2,H   8)          112.8318         0.320125   
     41. A(C   3,C   2,H   8)          112.4036         0.319725   
     42. A(C   3,C   2,H   9)          110.6153         0.319321   
     43. A(H   8,C   2,H   9)          107.7728         0.288977   
     44. A(C   1,C   2,C   3)          103.1270         0.355196   
     45. A(C   2,C   3,H  10)          112.5255         0.319554   
     46. A(C   2,C   3,O   4)          106.5271         0.361529   
     47. A(O   4,C   3,H  10)          109.1300         0.325449   
     48. A(C   2,C   3,H  11)          112.4566         0.319846   
     49. A(O   4,C   3,H  11)          107.1238         0.325748   
     50. A(H  10,C   3,H  11)          108.8727         0.289284   
     51. A(C   0,O   4,C   3)          108.3152         0.371320   
     52. A(H  13,C  12,C  14)          111.3414         0.321616   
     53. A(H  13,C  12,O  17)          110.3617         0.326589   
     54. A(C  14,C  12,O  17)          104.2722         0.368114   
     55. A(H  13,C  12,H  18)          109.1266         0.288631   
     56. A(O  17,C  12,H  18)          107.0285         0.328535   
     57. A(C  14,C  12,H  18)          114.5032         0.323521   
     58. A(C  12,C  14,O  19)          110.0501         0.375217   
     59. A(C  15,C  14,O  19)          110.6769         0.371923   
     60. A(C  12,C  14,H  20)          113.1127         0.322752   
     61. A(C  15,C  14,H  20)          112.7852         0.320062   
     62. A(O  19,C  14,H  20)          108.4025         0.333826   
     63. A(C  12,C  14,C  15)          101.7134         0.359126   
     64. A(C  14,C  15,H  21)          112.8587         0.320307   
     65. A(C  16,C  15,H  21)          112.3942         0.319778   
     66. A(C  14,C  15,H  22)          110.1407         0.319716   
     67. A(C  16,C  15,H  22)          110.5910         0.319189   
     68. A(C  14,C  15,C  16)          103.1473         0.355407   
     69. A(H  21,C  15,H  22)          107.7042         0.288861   
     70. A(C  15,C  16,H  23)          112.5666         0.319479   
     71. A(H  23,C  16,H  24)          108.8781         0.289130   
     72. A(O  17,C  16,H  23)          109.0898         0.325248   
     73. A(C  15,C  16,H  24)          112.4524         0.319799   
     74. A(O  17,C  16,H  24)          107.1439         0.325576   
     75. A(C  15,C  16,O  17)          106.5018         0.361451   
     76. A(C  12,O  17,C  16)          108.2896         0.371161   
     77. A(C   0,O  19,C  14)          114.3334         0.388605   
     78. D(C   2,C   1,C   0,H   5)   -156.5743         0.010890   
     79. D(H   7,C   1,C   0,O   4)   -161.2882         0.010890   
     80. D(H   7,C   1,C   0,H   5)     82.1519         0.010890   
     81. D(H   6,C   1,C   0,O   4)     77.3261         0.010890   
     82. D(C   2,C   1,C   0,O  19)     79.0808         0.010890   
     83. D(C   2,C   1,C   0,O   4)    -40.0144         0.010890 C 
     84. D(H   6,C   1,C   0,O  19)   -163.5788         0.010890   
     85. D(H   7,C   1,C   0,O  19)    -42.1930         0.010890   
     86. D(H   6,C   1,C   0,H   5)    -39.2339         0.010890   
     87. D(H   9,C   2,C   1,H   7)     38.4579         0.009912   
     88. D(C   3,C   2,C   1,H   7)    156.5041         0.009912   
     89. D(H   8,C   2,C   1,H   7)    -81.9751         0.009912   
     90. D(H   8,C   2,C   1,C   0)    156.5480         0.009912   
     91. D(H   9,C   2,C   1,H   6)    160.0776         0.009912   
     92. D(C   3,C   2,C   1,H   6)    -81.8762         0.009912   
     93. D(H   9,C   2,C   1,C   0)    -83.0190         0.009912   
     94. D(H   8,C   2,C   1,H   6)     39.6446         0.009912   
     95. D(C   3,C   2,C   1,C   0)     35.0272         0.009912 C 
     96. D(H  10,C   3,C   2,H   9)    -20.0726         0.009774   
     97. D(O   4,C   3,C   2,H   9)     99.4740         0.009774   
     98. D(H  11,C   3,C   2,C   1)     98.8666         0.009774   
     99. D(H  10,C   3,C   2,C   1)   -137.7432         0.009774   
    100. D(O   4,C   3,C   2,C   1)    -18.1966         0.009774 C 
    101. D(H  11,C   3,C   2,H   8)    -22.9434         0.009774   
    102. D(H  11,C   3,C   2,H   9)   -143.4628         0.009774   
    103. D(H  10,C   3,C   2,H   8)    100.4468         0.009774   
    104. D(O   4,C   3,C   2,H   8)   -140.0066         0.009774   
    105. D(C   3,O   4,C   0,H   5)    151.2014         0.014035   
    106. D(C   3,O   4,C   0,C   1)     29.5917         0.014035 C 
    107. D(C   0,O   4,C   3,C   2)     -6.8733         0.012866 C 
    108. D(C   3,O   4,C   0,O  19)    -90.0794         0.014035   
    109. D(C   0,O   4,C   3,H  10)    114.8546         0.012866   
    110. D(C   0,O   4,C   3,H  11)   -127.4272         0.012866   
    111. D(C  15,C  14,C  12,H  13)     79.0158         0.010962   
    112. D(C  15,C  14,C  12,O  17)    -39.9868         0.010962 C 
    113. D(C  15,C  14,C  12,H  18)   -156.6039         0.010962   
    114. D(O  19,C  14,C  12,H  13)   -163.6267         0.010962   
    115. D(O  19,C  14,C  12,O  17)     77.3708         0.010962   
    116. D(O  19,C  14,C  12,H  18)    -39.2464         0.010962   
    117. D(H  20,C  14,C  12,H  13)    -42.2173         0.010962   
    118. D(H  20,C  14,C  12,O  17)   -161.2198         0.010962   
    119. D(H  20,C  14,C  12,H  18)     82.1630         0.010962   
    120. D(C  16,C  15,C  14,C  12)     35.0291         0.009967 C 
    121. D(C  16,C  15,C  14,O  19)    -81.8744         0.009967   
    122. D(C  16,C  15,C  14,H  20)    156.4898         0.009967   
    123. D(H  21,C  15,C  14,C  12)    156.5658         0.009967   
    124. D(H  21,C  15,C  14,O  19)     39.6623         0.009967   
    125. D(H  21,C  15,C  14,H  20)    -81.9735         0.009967   
    126. D(H  22,C  15,C  14,C  12)    -83.0279         0.009967   
    127. D(H  22,C  15,C  14,O  19)    160.0686         0.009967   
    128. D(H  22,C  15,C  14,H  20)     38.4327         0.009967   
    129. D(O  17,C  16,C  15,C  14)    -18.2123         0.009783 C 
    130. D(H  24,C  16,C  15,H  21)    -22.9928         0.009783   
    131. D(O  17,C  16,C  15,H  22)     99.5291         0.009783   
    132. D(H  23,C  16,C  15,C  14)   -137.7169         0.009783   
    133. D(H  23,C  16,C  15,H  21)    100.4328         0.009783   
    134. D(H  23,C  16,C  15,H  22)    -19.9756         0.009783   
    135. D(O  17,C  16,C  15,H  21)   -140.0625         0.009783   
    136. D(H  24,C  16,C  15,C  14)     98.8574         0.009783   
    137. D(H  24,C  16,C  15,H  22)   -143.4013         0.009783   
    138. D(C  16,O  17,C  12,H  13)    -90.1326         0.014016   
    139. D(C  16,O  17,C  12,C  14)     29.5339         0.014016 C 
    140. D(C  16,O  17,C  12,H  18)    151.2349         0.014016   
    141. D(C  12,O  17,C  16,C  15)     -6.8227         0.012821 C 
    142. D(C  12,O  17,C  16,H  23)    114.9169         0.012821   
    143. D(C  12,O  17,C  16,H  24)   -127.3688         0.012821   
    144. D(C  14,O  19,C   0,C   1)   -130.3132         0.017417   
    145. D(C  14,O  19,C   0,O   4)    -14.9999         0.017417 C 
    146. D(C  14,O  19,C   0,H   5)    102.4123         0.017417   
    147. D(C   0,O  19,C  14,C  12)     75.0004         0.017507 C 
    148. D(C   0,O  19,C  14,C  15)   -173.3621         0.017507   
    149. D(C   0,O  19,C  14,H  20)    -49.1807         0.017507   
    -----------------------------------------------------------------

Number of atoms                         .... 25
Number of degrees of freedom            .... 149

         *************************************************************
         *                GEOMETRY OPTIMIZATION CYCLE   1            *
         *************************************************************
---------------------------------
CARTESIAN COORDINATES (ANGSTROEM)
---------------------------------
  C    -21.047958   26.221902   46.251096
  C    -20.361038   27.557930   45.944005
  C    -20.329254   28.222137   47.340911
  C    -20.110250   27.022295   48.296099
  O    -20.473053   25.807162   47.535226
  H    -20.832801   25.427841   45.533211
  H    -19.343980   27.381970   45.576144
  H    -20.898010   28.156781   45.200864
  H    -19.543333   28.978222   47.433892
  H    -21.289321   28.710081   47.547733
  H    -20.733353   27.082361   49.195023
  H    -19.064273   26.913434   48.597228
  C    -22.720747   26.656589   48.770929
  H    -22.882791   26.100518   49.707879
  C    -23.040093   25.791837   47.546867
  C    -24.584067   25.865113   47.504927
  C    -24.881697   27.306136   47.989110
  O    -23.659527   27.779795   48.675089
  H    -21.714648   27.080353   48.775894
  O    -22.471982   26.380820   46.365912
  H    -22.666246   24.765775   47.635793
  H    -24.992160   25.667287   46.508931
  H    -25.016187   25.129134   48.194874
  H    -25.724643   27.349256   48.688167
  H    -25.073588   27.994271   47.160196

----------------------------
CARTESIAN COORDINATES (A.U.)
----------------------------
  NO LB      ZA    FRAG     MASS         X           Y           Z
   0 C     6.0000    0    12.011  -39.774877   49.552214   87.401905
   1 C     6.0000    0    12.011  -38.476785   52.076940   86.821587
   2 C     6.0000    0    12.011  -38.416723   53.332110   89.461357
   3 C     6.0000    0    12.011  -38.002865   51.064738   91.266401
   4 O     8.0000    0    15.999  -38.688463   48.768468   89.828559
   5 H     1.0000    0     1.008  -39.368289   48.051656   86.045298
   6 H     1.0000    0     1.008  -36.554825   51.744425   86.126431
   7 H     1.0000    0     1.008  -39.491515   53.208605   85.417254
   8 H     1.0000    0     1.008  -36.931547   54.760903   89.637064
   9 H     1.0000    0     1.008  -40.230986   54.254190   89.852195
  10 H     1.0000    0     1.008  -39.180360   51.178246   92.965121
  11 H     1.0000    0     1.008  -36.026254   50.859020   91.835453
  12 C     6.0000    0    12.011  -42.935990   50.373653   92.163699
  13 H     1.0000    0     1.008  -43.242207   49.322831   93.934278
  14 C     6.0000    0    12.011  -43.539466   48.739509   89.850558
  15 C     6.0000    0    12.011  -46.457153   48.877980   89.771301
  16 C     6.0000    0    12.011  -47.019593   51.601119   90.686275
  17 O     8.0000    0    15.999  -44.710026   52.496204   91.982588
  18 H     1.0000    0     1.008  -41.034737   51.174450   92.173081
  19 O     8.0000    0    15.999  -42.465892   49.852525   87.618875
  20 H     1.0000    0     1.008  -42.832997   46.800533   90.018602
  21 H     1.0000    0     1.008  -47.228339   48.504142   87.889141
  22 H     1.0000    0     1.008  -47.273743   47.487181   91.075112
  23 H     1.0000    0     1.008  -48.612530   51.682604   92.007302
  24 H     1.0000    0     1.008  -47.382214   52.901506   89.119855

--------------------------------
INTERNAL COORDINATES (ANGSTROEM)
--------------------------------
 C      0   0   0     0.000000000000     0.00000000     0.00000000
 C      1   0   0     1.533334275362     0.00000000     0.00000000
 C      2   1   0     1.547103422529   101.67907390     0.00000000
 C      3   2   1     1.549188819996   103.12737509    35.02687180
 O      1   2   3     1.466801281701   104.24948604   319.98542309
 H      1   2   3     1.091872245274   114.43876658   203.42640133
 H      2   1   3     1.095759553917   110.06782188   117.34000099
 H      2   1   3     1.095088580892   113.12442239   238.72597460
 H      3   2   1     1.094523183857   112.83161078   156.54780790
 H      3   2   1     1.096628013503   110.07982737   276.98070077
 H      4   3   2     1.095413164062   112.52534669   222.25678475
 H      4   3   2     1.093891219455   112.45670684    98.86663270
 C     11   4   3     2.076666800428   111.44933302    73.59891321
 H     13  11   4     1.101521220858    94.03767845   141.67554060
 C     13  11   4     1.532371364911   118.54808717    24.69285478
 C     15  13  11     1.546295249944   101.70727965   186.39197069
 C     16  15  13     1.549045189786   103.15117190    35.02826316
 O     13  11   4     1.466992160852   117.99866911   257.30544999
 H     11   4   3     1.067654438477   101.59398867    60.30778456
 O     15  13  11     1.436769292545   110.05133981   303.74451615
 H     15  13  11     1.095660987715   113.11965953    65.16099301
 H     16  15  13     1.094387499929   112.85724188   156.56418355
 H     16  15  13     1.097460705447   110.13991590   276.96977647
 H     17  16  15     1.095946622788   112.56659239   222.28255152
 H     17  16  15     1.094280128669   112.45264323    98.85674824

---------------------------
INTERNAL COORDINATES (A.U.)
---------------------------
 C      0   0   0     0.000000000000     0.00000000     0.00000000
 C      1   0   0     2.897581852189     0.00000000     0.00000000
 C      2   1   0     2.923601769431   101.67907390     0.00000000
 C      3   2   1     2.927542599525   103.12737509    35.02687180
 O      1   2   3     2.771852715300   104.24948604   319.98542309
 H      1   2   3     2.063339516798   114.43876658   203.42640133
 H      2   1   3     2.070685465531   110.06782188   117.34000099
 H      2   1   3     2.069417510270   113.12442239   238.72597460
 H      3   2   1     2.068349064717   112.83161078   156.54780790
 H      3   2   1     2.072326616307   110.07982737   276.98070077
 H      4   3   2     2.070030883569   112.52534669   222.25678475
 H      4   3   2     2.067154825070   112.45670684    98.86663270
 C     11   4   3     3.924331524215   111.44933302    73.59891321
 H     13  11   4     2.081573438124    94.03767845   141.67554060
 C     13  11   4     2.895762215145   118.54808717    24.69285478
 C     15  13  11     2.922074544578   101.70727965   186.39197069
 C     16  15  13     2.927271177764   103.15117190    35.02826316
 O     13  11   4     2.772213424619   117.99866911   257.30544999
 H     11   4   3     2.017574494387   101.59398867    60.30778456
 O     15  13  11     2.715100480538   110.05133981   303.74451615
 H     15  13  11     2.070499202402   113.11965953    65.16099301
 H     16  15  13     2.068092659252   112.85724188   156.56418355
 H     16  15  13     2.073900176035   110.13991590   276.96977647
 H     17  16  15     2.071038974465   112.56659239   222.28255152
 H     17  16  15     2.067889756977   112.45264323    98.85674824

---------------------
BASIS SET INFORMATION
---------------------
There are 3 groups of distinct atoms

 Group   1 Type C   : 10s4p contracted to 3s2p pattern {631/31}
 Group   2 Type O   : 10s4p contracted to 3s2p pattern {631/31}
 Group   3 Type H   : 4s contracted to 2s pattern {31}

Atom   0C    basis set group =>   1
Atom   1C    basis set group =>   1
Atom   2C    basis set group =>   1
Atom   3C    basis set group =>   1
Atom   4O    basis set group =>   2
Atom   5H    basis set group =>   3
Atom   6H    basis set group =>   3
Atom   7H    basis set group =>   3
Atom   8H    basis set group =>   3
Atom   9H    basis set group =>   3
Atom  10H    basis set group =>   3
Atom  11H    basis set group =>   3
Atom  12C    basis set group =>   1
Atom  13H    basis set group =>   3
Atom  14C    basis set group =>   1
Atom  15C    basis set group =>   1
Atom  16C    basis set group =>   1
Atom  17O    basis set group =>   2
Atom  18H    basis set group =>   3
Atom  19O    basis set group =>   2
Atom  20H    basis set group =>   3
Atom  21H    basis set group =>   3
Atom  22H    basis set group =>   3
Atom  23H    basis set group =>   3
Atom  24H    basis set group =>   3
------------------------------------------------------------------------------
                           ORCA GTO INTEGRAL CALCULATION
------------------------------------------------------------------------------

                         BASIS SET STATISTICS AND STARTUP INFO

 # of primitive gaussian shells          ...  210
 # of primitive gaussian functions       ...  298
 # of contracted shells                  ...   83
 # of contracted basis functions         ...  127
 Highest angular momentum                ...    1
 Maximum contraction depth               ...    6
 Integral package used                   ... LIBINT
 Integral threshhold            Thresh   ...  2.500e-11
 Primitive cut-off              TCut     ...  2.500e-12


------------------------------ INTEGRAL EVALUATION ----------------------------


 * One electron integrals 
 Pre-screening matrix                    ... done
 Shell pair data                         ... done (   0.003 sec)

-------------------------------------------------------------------------------
                                 ORCA SCF
-------------------------------------------------------------------------------

------------
SCF SETTINGS
------------
Hamiltonian:
 Density Functional     Method          .... DFT(GTOs)
 Exchange Functional    Exchange        .... B88
   X-Alpha parameter    XAlpha          ....  0.666667
   Becke's b parameter  XBeta           ....  0.004200
 Correlation Functional Correlation     .... LYP
 LDA part of GGA corr.  LDAOpt          .... VWN-5
 Gradients option       PostSCFGGA      .... off
 Hybrid DFT is turned on
   Fraction HF Exchange ScalHFX         ....  0.200000
   Scaling of DF-GGA-X  ScalDFX         ....  0.720000
   Scaling of DF-GGA-C  ScalDFC         ....  0.810000
   Scaling of DF-LDA-C  ScalLDAC        ....  1.000000
   Perturbative correction              ....  0.000000
   Density functional embedding theory  .... OFF
   NL short-range parameter             ....  4.800000


General Settings:
 Integral files         IntName         .... ensemble_345_75
 Hartree-Fock type      HFTyp           .... RHF
 Total Charge           Charge          ....    0
 Multiplicity           Mult            ....    1
 Number of Electrons    NEL             ....   86
 Basis Dimension        Dim             ....  127
 Nuclear Repulsion      ENuc            ....    707.0494471357 Eh

Convergence Acceleration:
 DIIS                   CNVDIIS         .... on
   Start iteration      DIISMaxIt       ....    12
   Startup error        DIISStart       ....  0.200000
   # of expansion vecs  DIISMaxEq       ....     5
   Bias factor          DIISBfac        ....   1.050
   Max. coefficient     DIISMaxC        ....  10.000
 Newton-Raphson         CNVNR           .... off
 SOSCF                  CNVSOSCF        .... on
   Start iteration      SOSCFMaxIt      ....   150
   Startup grad/error   SOSCFStart      ....  0.003300
 Level Shifting         CNVShift        .... on
   Level shift para.    LevelShift      ....    0.2500
   Turn off err/grad.   ShiftErr        ....    0.0010
 Zerner damping         CNVZerner       .... off
 Static damping         CNVDamp         .... on
   Fraction old density DampFac         ....    0.7000
   Max. Damping (<1)    DampMax         ....    0.9800
   Min. Damping (>=0)   DampMin         ....    0.0000
   Turn off err/grad.   DampErr         ....    0.1000
 Fernandez-Rico         CNVRico         .... off

SCF Procedure:
 Maximum # iterations   MaxIter         ....   125
 SCF integral mode      SCFMode         .... Direct
   Integral package                     .... LIBINT
 Reset frequency        DirectResetFreq ....    20
 Integral Threshold     Thresh          ....  2.500e-11 Eh
 Primitive CutOff       TCut            ....  2.500e-12 Eh

Convergence Tolerance:
 Convergence Check Mode ConvCheckMode   .... Total+1el-Energy
 Convergence forced     ConvForced      .... 0
 Energy Change          TolE            ....  1.000e-08 Eh
 1-El. energy change                    ....  1.000e-05 Eh
 Orbital Gradient       TolG            ....  1.000e-05
 Orbital Rotation angle TolX            ....  1.000e-05
 DIIS Error             TolErr          ....  5.000e-07


Diagonalization of the overlap matrix:
Smallest eigenvalue                        ... 3.161e-03
Time for diagonalization                   ...    0.003 sec
Threshold for overlap eigenvalues          ... 1.000e-08
Number of eigenvalues below threshold      ... 0
Time for construction of square roots      ...    0.041 sec
Total time needed                          ...    0.044 sec

-------------------
DFT GRID GENERATION
-------------------

General Integration Accuracy     IntAcc      ...  4.340
Radial Grid Type                 RadialGrid  ... Gauss-Chebyshev
Angular Grid (max. acc.)         AngularGrid ... Lebedev-110
Angular grid pruning method      GridPruning ... 3 (G Style)
Weight generation scheme         WeightScheme... Becke
Basis function cutoff            BFCut       ...    1.0000e-11
Integration weight cutoff        WCut        ...    1.0000e-14
Grids for H and He will be reduced by one unit

# of grid points (after initial pruning)     ...  29512 (   0.0 sec)
# of grid points (after weights+screening)   ...  26497 (   0.2 sec)
nearest neighbour list constructed           ...    0.0 sec
Grid point re-assignment to atoms done       ...    0.0 sec
Grid point division into batches done        ...    0.0 sec
Reduced shell lists constructed in    0.3 sec

Total number of grid points                  ...    26497
Total number of batches                      ...      427
Average number of points per batch           ...       62
Average number of grid points per atom       ...     1060
Average number of shells per batch           ...    57.82 (69.66%)
Average number of basis functions per batch  ...    93.46 (73.59%)
Average number of large shells per batch     ...    43.48 (75.19%)
Average number of large basis fcns per batch ...    71.82 (76.84%)
Maximum spatial batch extension              ...  19.44, 19.31, 19.28 au
Average spatial batch extension              ...   3.34,  3.50,  3.28 au

Time for grid setup =    0.484 sec

------------------------------
INITIAL GUESS: MODEL POTENTIAL
------------------------------
Loading Hartree-Fock densities                     ... done
Calculating cut-offs                               ... done
Setting up the integral package                    ... done
Initializing the effective Hamiltonian             ... done
Starting the Coulomb interaction                   ... done (   0.3 sec)
Reading the grid                                   ... done
Mapping shells                                     ... done
Starting the XC term evaluation                    ... done (   0.3 sec)
  promolecular density results
     # of electrons  =     85.997927900
     EX              =    -69.906280266
     EC              =     -2.922650066
     EX+EC           =    -72.828930332
Transforming the Hamiltonian                       ... done (   0.0 sec)
Diagonalizing the Hamiltonian                      ... done (   0.0 sec)
Back transforming the eigenvectors                 ... done (   0.0 sec)
Now organizing SCF variables                       ... done
                      ------------------
                      INITIAL GUESS DONE (   1.2 sec)
                      ------------------
--------------
SCF ITERATIONS
--------------
ITER       Energy         Delta-E        Max-DP      RMS-DP      [F,P]     Damp
               ***  Starting incremental Fock matrix formation  ***
  0   -538.1397917996   0.000000000000 0.06118525  0.00317412  0.1841179 0.7000
  1   -538.2479577554  -0.108165955861 0.03933709  0.00226178  0.0775026 0.7000
                               ***Turning on DIIS***
  2   -538.2907601739  -0.042802418492 0.06939332  0.00378047  0.0299552 0.0000
  3   -538.3585773901  -0.067817216217 0.02655540  0.00155602  0.0395573 0.0000
  4   -538.3733753885  -0.014797998361 0.00831248  0.00042952  0.0070979 0.0000
  5   -538.3739072193  -0.000531830839 0.00262172  0.00014887  0.0044142 0.0000
                      *** Initiating the SOSCF procedure ***
                           *** Shutting down DIIS ***
                      *** Re-Reading the Fockian *** 
                      *** Removing any level shift *** 
ITER      Energy       Delta-E        Grad      Rot      Max-DP    RMS-DP
  6   -538.37397936  -0.0000721420  0.000138  0.000138  0.000977  0.000060
               *** Restarting incremental Fock matrix formation ***
  7   -538.37398159  -0.0000022319  0.000104  0.000140  0.000770  0.000025
  8   -538.37398098   0.0000006155  0.000129  0.000071  0.000391  0.000014
  9   -538.37398230  -0.0000013234  0.000014  0.000020  0.000090  0.000004
 10   -538.37398228   0.0000000162  0.000019  0.000012  0.000057  0.000003
                  ***Gradient check signals convergence***
              ***Rediagonalizing the Fockian in SOSCF/NRSCF***

               *****************************************************
               *                     SUCCESS                       *
               *           SCF CONVERGED AFTER  11 CYCLES          *
               *****************************************************

Setting up the final grid:

General Integration Accuracy     IntAcc      ...  4.670
Radial Grid Type                 RadialGrid  ... Gauss-Chebyshev
Angular Grid (max. acc.)         AngularGrid ... Lebedev-302
Angular grid pruning method      GridPruning ... 3 (G Style)
Weight generation scheme         WeightScheme... Becke
Basis function cutoff            BFCut       ...    1.0000e-11
Integration weight cutoff        WCut        ...    1.0000e-14
Grids for H and He will be reduced by one unit

# of grid points (after initial pruning)     ... 115848 (   0.0 sec)
# of grid points (after weights+screening)   ... 101868 (   0.7 sec)
nearest neighbour list constructed           ...    0.0 sec
Grid point re-assignment to atoms done       ...    0.0 sec
Grid point division into batches done        ...    0.4 sec
Reduced shell lists constructed in    1.3 sec

Total number of grid points                  ...   101868
Total number of batches                      ...     1605
Average number of points per batch           ...       63
Average number of grid points per atom       ...     4075
Average number of shells per batch           ...    53.29 (64.21%)
Average number of basis functions per batch  ...    86.43 (68.06%)
Average number of large shells per batch     ...    39.04 (73.25%)
Average number of large basis fcns per batch ...    64.82 (74.99%)
Maximum spatial batch extension              ...  16.58, 19.26, 19.60 au
Average spatial batch extension              ...   2.15,  2.27,  2.25 au

Final grid set up in    2.1 sec
Final integration                            ... done (   1.5 sec)
Change in XC energy                          ...     0.000451094
Integrated number of electrons               ...    85.999904208
Previous integrated no of electrons          ...    86.003526787

----------------
TOTAL SCF ENERGY
----------------

Total Energy       :         -538.37353122 Eh          -14649.88857 eV

Components:
Nuclear Repulsion  :          707.04944714 Eh           19239.79359 eV
Electronic Energy  :        -1245.42297836 Eh          -33889.68216 eV
One Electron Energy:        -2136.61295439 Eh          -58140.19428 eV
Two Electron Energy:          891.18997603 Eh           24250.51212 eV

Virial components:
Potential Energy   :        -1074.39306166 Eh          -29235.72152 eV
Kinetic Energy     :          536.01953044 Eh           14585.83295 eV
Virial Ratio       :            2.00439163


DFT components:
N(Alpha)           :       42.999952104226 electrons
N(Beta)            :       42.999952104226 electrons
N(Total)           :       85.999904208452 electrons
E(X)               :      -56.537508856859 Eh       
E(C)               :       -3.434818559537 Eh       
E(XC)              :      -59.972327416396 Eh       
DFET-embed. en.    :        0.000000000000 Eh       

---------------
SCF CONVERGENCE
---------------

  Last Energy change         ...   -3.2638e-08  Tolerance :   1.0000e-08
  Last MAX-Density change    ...    1.1563e-05  Tolerance :   1.0000e-07
  Last RMS-Density change    ...    4.1123e-07  Tolerance :   5.0000e-09
  Last Orbital Gradient      ...    1.6597e-06  Tolerance :   1.0000e-05
  Last Orbital Rotation      ...    2.0094e-06  Tolerance :   1.0000e-05

             **** THE GBW FILE WAS UPDATED (ensemble_345_75.gbw) ****
             **** DENSITY FILE WAS UPDATED (ensemble_345_75.scfp) ****
             **** ENERGY FILE WAS UPDATED (ensemble_345_75.en.tmp) ****
             **** THE GBW FILE WAS UPDATED (ensemble_345_75.gbw) ****
             **** DENSITY FILE WAS UPDATED (ensemble_345_75.scfp) ****
----------------
ORBITAL ENERGIES
----------------

  NO   OCC          E(Eh)            E(eV) 
   0   2.0000     -19.155520      -521.2482 
   1   2.0000     -19.138680      -520.7900 
   2   2.0000     -19.121356      -520.3186 
   3   2.0000     -10.283111      -279.8177 
   4   2.0000     -10.231099      -278.4023 
   5   2.0000     -10.231014      -278.4001 
   6   2.0000     -10.213549      -277.9248 
   7   2.0000     -10.197428      -277.4861 
   8   2.0000     -10.188857      -277.2529 
   9   2.0000     -10.188637      -277.2469 
  10   2.0000     -10.180576      -277.0276 
  11   2.0000      -1.068600       -29.0781 
  12   2.0000      -1.009029       -27.4571 
  13   2.0000      -0.992445       -27.0058 
  14   2.0000      -0.794715       -21.6253 
  15   2.0000      -0.780388       -21.2354 
  16   2.0000      -0.750755       -20.4291 
  17   2.0000      -0.709399       -19.3037 
  18   2.0000      -0.640527       -17.4296 
  19   2.0000      -0.601330       -16.3630 
  20   2.0000      -0.591366       -16.0919 
  21   2.0000      -0.562601       -15.3091 
  22   2.0000      -0.524005       -14.2589 
  23   2.0000      -0.510129       -13.8813 
  24   2.0000      -0.507582       -13.8120 
  25   2.0000      -0.478223       -13.0131 
  26   2.0000      -0.450742       -12.2653 
  27   2.0000      -0.442770       -12.0484 
  28   2.0000      -0.424460       -11.5501 
  29   2.0000      -0.418898       -11.3988 
  30   2.0000      -0.397925       -10.8281 
  31   2.0000      -0.379608       -10.3297 
  32   2.0000      -0.370854       -10.0915 
  33   2.0000      -0.366741        -9.9795 
  34   2.0000      -0.356920        -9.7123 
  35   2.0000      -0.347889        -9.4665 
  36   2.0000      -0.337420        -9.1817 
  37   2.0000      -0.324167        -8.8210 
  38   2.0000      -0.305944        -8.3252 
  39   2.0000      -0.292488        -7.9590 
  40   2.0000      -0.270143        -7.3510 
  41   2.0000      -0.249426        -6.7872 
  42   2.0000      -0.225935        -6.1480 
  43   0.0000       0.087349         2.3769 
  44   0.0000       0.093625         2.5477 
  45   0.0000       0.102935         2.8010 
  46   0.0000       0.108180         2.9437 
  47   0.0000       0.123449         3.3592 
  48   0.0000       0.134901         3.6708 
  49   0.0000       0.139526         3.7967 
  50   0.0000       0.142518         3.8781 
  51   0.0000       0.150418         4.0931 
  52   0.0000       0.158236         4.3058 
  53   0.0000       0.160860         4.3772 
  54   0.0000       0.167212         4.5501 
  55   0.0000       0.174718         4.7543 
  56   0.0000       0.179556         4.8860 
  57   0.0000       0.188165         5.1202 
  58   0.0000       0.192514         5.2386 
  59   0.0000       0.209191         5.6924 
  60   0.0000       0.229845         6.2544 
  61   0.0000       0.231871         6.3095 
  62   0.0000       0.246550         6.7090 
  63   0.0000       0.253600         6.9008 
  64   0.0000       0.263922         7.1817 
  65   0.0000       0.283040         7.7019 
  66   0.0000       0.295202         8.0328 
  67   0.0000       0.301216         8.1965 
  68   0.0000       0.353900         9.6301 
  69   0.0000       0.525975        14.3125 
  70   0.0000       0.546380        14.8678 
  71   0.0000       0.557842        15.1797 
  72   0.0000       0.565379        15.3848 
  73   0.0000       0.569803        15.5051 
  74   0.0000       0.577007        15.7011 
  75   0.0000       0.588819        16.0226 
  76   0.0000       0.600901        16.3513 
  77   0.0000       0.611257        16.6331 
  78   0.0000       0.619772        16.8649 
  79   0.0000       0.638052        17.3623 
  80   0.0000       0.642874        17.4935 
  81   0.0000       0.651761        17.7353 
  82   0.0000       0.670050        18.2330 
  83   0.0000       0.679900        18.5010 
  84   0.0000       0.714762        19.4497 
  85   0.0000       0.731681        19.9101 
  86   0.0000       0.749917        20.4063 
  87   0.0000       0.777936        21.1687 
  88   0.0000       0.803704        21.8699 
  89   0.0000       0.821457        22.3530 
  90   0.0000       0.850858        23.1530 
  91   0.0000       0.852984        23.2109 
  92   0.0000       0.858967        23.3737 
  93   0.0000       0.880733        23.9660 
  94   0.0000       0.888278        24.1713 
  95   0.0000       0.901348        24.5269 
  96   0.0000       0.915210        24.9041 
  97   0.0000       0.929207        25.2850 
  98   0.0000       0.936313        25.4784 
  99   0.0000       0.942382        25.6435 
 100   0.0000       0.952865        25.9288 
 101   0.0000       0.963429        26.2162 
 102   0.0000       0.972987        26.4763 
 103   0.0000       0.981435        26.7062 
 104   0.0000       1.008099        27.4318 
 105   0.0000       1.040024        28.3005 
 106   0.0000       1.048934        28.5429 
 107   0.0000       1.072366        29.1806 
 108   0.0000       1.109947        30.2032 
 109   0.0000       1.145289        31.1649 
 110   0.0000       1.179279        32.0898 
 111   0.0000       1.220328        33.2068 
 112   0.0000       1.282956        34.9110 
 113   0.0000       1.298110        35.3234 
 114   0.0000       1.358449        36.9653 
 115   0.0000       1.393060        37.9071 
 116   0.0000       1.435492        39.0617 
 117   0.0000       1.464788        39.8589 
 118   0.0000       1.478260        40.2255 
 119   0.0000       1.552125        42.2355 
 120   0.0000       1.578211        42.9453 
 121   0.0000       1.690573        46.0028 
 122   0.0000       1.709565        46.5196 
 123   0.0000       1.833538        49.8931 
 124   0.0000       1.970662        53.6244 
 125   0.0000       2.063422        56.1486 
 126   0.0000       2.224908        60.5428 

                    ********************************
                    * MULLIKEN POPULATION ANALYSIS *
                    ********************************

-----------------------
MULLIKEN ATOMIC CHARGES
-----------------------
   0 C :    0.283035
   1 C :   -0.245113
   2 C :   -0.307048
   3 C :   -0.061140
   4 O :   -0.504163
   5 H :    0.154045
   6 H :    0.144580
   7 H :    0.162398
   8 H :    0.148099
   9 H :    0.197826
  10 H :    0.202415
  11 H :    0.136399
  12 C :    0.051829
  13 H :    0.110408
  14 C :    0.087719
  15 C :   -0.287306
  16 C :   -0.004261
  17 O :   -0.537831
  18 H :    0.073518
  19 O :   -0.524132
  20 H :    0.142187
  21 H :    0.152775
  22 H :    0.142909
  23 H :    0.130809
  24 H :    0.150042
Sum of atomic charges:   -0.0000000

--------------------------------
MULLIKEN REDUCED ORBITAL CHARGES
--------------------------------
  0 C s       :     3.204304  s :     3.204304
      pz      :     0.796110  p :     2.512661
      px      :     0.691955
      py      :     1.024597
  1 C s       :     3.302886  s :     3.302886
      pz      :     0.973930  p :     2.942227
      px      :     1.027394
      py      :     0.940903
  2 C s       :     3.315543  s :     3.315543
      pz      :     0.903642  p :     2.991505
      px      :     1.112343
      py      :     0.975520
  3 C s       :     3.290174  s :     3.290174
      pz      :     0.936322  p :     2.770966
      px      :     1.079837
      py      :     0.754806
  4 O s       :     3.943885  s :     3.943885
      pz      :     1.315752  p :     4.560278
      px      :     1.741021
      py      :     1.503505
  5 H s       :     0.845955  s :     0.845955
  6 H s       :     0.855420  s :     0.855420
  7 H s       :     0.837602  s :     0.837602
  8 H s       :     0.851901  s :     0.851901
  9 H s       :     0.802174  s :     0.802174
 10 H s       :     0.797585  s :     0.797585
 11 H s       :     0.863601  s :     0.863601
 12 C s       :     3.243980  s :     3.243980
      pz      :     0.963926  p :     2.704191
      px      :     0.938761
      py      :     0.801505
 13 H s       :     0.889592  s :     0.889592
 14 C s       :     3.252302  s :     3.252302
      pz      :     0.744727  p :     2.659979
      px      :     0.913833
      py      :     1.001420
 15 C s       :     3.315109  s :     3.315109
      pz      :     1.076225  p :     2.972197
      px      :     0.930671
      py      :     0.965301
 16 C s       :     3.258695  s :     3.258695
      pz      :     0.991486  p :     2.745566
      px      :     0.808696
      py      :     0.945384
 17 O s       :     3.945118  s :     3.945118
      pz      :     1.771942  p :     4.592712
      px      :     1.280293
      py      :     1.540477
 18 H s       :     0.926482  s :     0.926482
 19 O s       :     3.930775  s :     3.930775
      pz      :     1.535369  p :     4.593357
      px      :     1.281277
      py      :     1.776711
 20 H s       :     0.857813  s :     0.857813
 21 H s       :     0.847225  s :     0.847225
 22 H s       :     0.857091  s :     0.857091
 23 H s       :     0.869191  s :     0.869191
 24 H s       :     0.849958  s :     0.849958


                     *******************************
                     * LOEWDIN POPULATION ANALYSIS *
                     *******************************

----------------------
LOEWDIN ATOMIC CHARGES
----------------------
   0 C :    0.183142
   1 C :   -0.214001
   2 C :   -0.223715
   3 C :   -0.059102
   4 O :   -0.320789
   5 H :    0.102342
   6 H :    0.114266
   7 H :    0.127823
   8 H :    0.118822
   9 H :    0.132772
  10 H :    0.134756
  11 H :    0.103667
  12 C :   -0.084410
  13 H :    0.086104
  14 C :    0.039270
  15 C :   -0.223143
  16 C :   -0.031859
  17 O :   -0.340332
  18 H :    0.137418
  19 O :   -0.323604
  20 H :    0.102659
  21 H :    0.123803
  22 H :    0.113692
  23 H :    0.094922
  24 H :    0.105496

-------------------------------
LOEWDIN REDUCED ORBITAL CHARGES
-------------------------------
  0 C s       :     2.955503  s :     2.955503
      pz      :     0.912546  p :     2.861355
      px      :     0.857550
      py      :     1.091259
  1 C s       :     2.979051  s :     2.979051
      pz      :     1.074029  p :     3.234950
      px      :     1.106661
      py      :     1.054259
  2 C s       :     2.972143  s :     2.972143
      pz      :     1.029452  p :     3.251571
      px      :     1.145184
      py      :     1.076935
  3 C s       :     2.995267  s :     2.995267
      pz      :     1.046346  p :     3.063835
      px      :     1.123280
      py      :     0.894209
  4 O s       :     3.605799  s :     3.605799
      pz      :     1.382227  p :     4.714990
      px      :     1.769247
      py      :     1.563515
  5 H s       :     0.897658  s :     0.897658
  6 H s       :     0.885734  s :     0.885734
  7 H s       :     0.872177  s :     0.872177
  8 H s       :     0.881178  s :     0.881178
  9 H s       :     0.867228  s :     0.867228
 10 H s       :     0.865244  s :     0.865244
 11 H s       :     0.896333  s :     0.896333
 12 C s       :     2.997940  s :     2.997940
      pz      :     1.090131  p :     3.086470
      px      :     1.042268
      py      :     0.954072
 13 H s       :     0.913896  s :     0.913896
 14 C s       :     2.951527  s :     2.951527
      pz      :     0.910741  p :     3.009203
      px      :     1.031491
      py      :     1.066971
 15 C s       :     2.978473  s :     2.978473
      pz      :     1.125021  p :     3.244670
      px      :     1.047652
      py      :     1.071997
 16 C s       :     2.983208  s :     2.983208
      pz      :     1.064279  p :     3.048650
      px      :     0.930083
      py      :     1.054288
 17 O s       :     3.603619  s :     3.603619
      pz      :     1.804376  p :     4.736713
      px      :     1.344197
      py      :     1.588140
 18 H s       :     0.862582  s :     0.862582
 19 O s       :     3.568647  s :     3.568647
      pz      :     1.582059  p :     4.754957
      px      :     1.360495
      py      :     1.812402
 20 H s       :     0.897341  s :     0.897341
 21 H s       :     0.876197  s :     0.876197
 22 H s       :     0.886308  s :     0.886308
 23 H s       :     0.905078  s :     0.905078
 24 H s       :     0.894504  s :     0.894504


                      *****************************
                      * MAYER POPULATION ANALYSIS *
                      *****************************

  NA   - Mulliken gross atomic population
  ZA   - Total nuclear charge
  QA   - Mulliken gross atomic charge
  VA   - Mayer's total valence
  BVA  - Mayer's bonded valence
  FA   - Mayer's free valence

  ATOM       NA         ZA         QA         VA         BVA        FA
  0 C      5.7170     6.0000     0.2830     3.6473     3.6473     0.0000
  1 C      6.2451     6.0000    -0.2451     3.7131     3.7131    -0.0000
  2 C      6.3070     6.0000    -0.3070     3.7258     3.7258    -0.0000
  3 C      6.0611     6.0000    -0.0611     3.6321     3.6321     0.0000
  4 O      8.5042     8.0000    -0.5042     1.7863     1.7863    -0.0000
  5 H      0.8460     1.0000     0.1540     0.9265     0.9265     0.0000
  6 H      0.8554     1.0000     0.1446     0.9329     0.9329    -0.0000
  7 H      0.8376     1.0000     0.1624     0.9372     0.9372    -0.0000
  8 H      0.8519     1.0000     0.1481     0.9378     0.9378    -0.0000
  9 H      0.8022     1.0000     0.1978     0.9332     0.9332    -0.0000
 10 H      0.7976     1.0000     0.2024     0.8795     0.8795     0.0000
 11 H      0.8636     1.0000     0.1364     0.9372     0.9372     0.0000
 12 C      5.9482     6.0000     0.0518     3.5824     3.5824    -0.0000
 13 H      0.8896     1.0000     0.1104     0.9290     0.9290    -0.0000
 14 C      5.9123     6.0000     0.0877     3.6432     3.6432    -0.0000
 15 C      6.2873     6.0000    -0.2873     3.7409     3.7409    -0.0000
 16 C      6.0043     6.0000    -0.0043     3.6706     3.6706    -0.0000
 17 O      8.5378     8.0000    -0.5378     1.7640     1.7640    -0.0000
 18 H      0.9265     1.0000     0.0735     0.9103     0.9103    -0.0000
 19 O      8.5241     8.0000    -0.5241     1.7092     1.7092    -0.0000
 20 H      0.8578     1.0000     0.1422     0.9399     0.9399    -0.0000
 21 H      0.8472     1.0000     0.1528     0.9410     0.9410    -0.0000
 22 H      0.8571     1.0000     0.1429     0.9327     0.9327    -0.0000
 23 H      0.8692     1.0000     0.1308     0.9271     0.9271    -0.0000
 24 H      0.8500     1.0000     0.1500     0.9279     0.9279    -0.0000

  Mayer bond orders larger than 0.100000
B(  0-C ,  1-C ) :   0.9400 B(  0-C ,  4-O ) :   0.8802 B(  0-C ,  5-H ) :   0.9235 
B(  0-C , 19-O ) :   0.8603 B(  1-C ,  2-C ) :   0.9429 B(  1-C ,  6-H ) :   0.9352 
B(  1-C ,  7-H ) :   0.9346 B(  2-C ,  3-C ) :   0.9390 B(  2-C ,  8-H ) :   0.9445 
B(  2-C ,  9-H ) :   0.9237 B(  3-C ,  4-O ) :   0.8447 B(  3-C , 10-H ) :   0.8493 
B(  3-C , 11-H ) :   0.9328 B( 12-C , 13-H ) :   0.9202 B( 12-C , 14-C ) :   0.9184 
B( 12-C , 17-O ) :   0.8463 B( 12-C , 18-H ) :   0.8582 B( 14-C , 15-C ) :   0.9555 
B( 14-C , 19-O ) :   0.8157 B( 14-C , 20-H ) :   0.9206 B( 15-C , 16-C ) :   0.9458 
B( 15-C , 21-H ) :   0.9378 B( 15-C , 22-H ) :   0.9430 B( 16-C , 17-O ) :   0.8576 
B( 16-C , 23-H ) :   0.9339 B( 16-C , 24-H ) :   0.9371 

-------
TIMINGS
-------

Total SCF time: 0 days 0 hours 1 min 8 sec 

Total time                  ....      68.516 sec
Sum of individual times     ....      67.942 sec  ( 99.2%)

Fock matrix formation       ....      64.545 sec  ( 94.2%)
  XC integration            ....       5.455 sec  (  8.5% of F)
    Basis function eval.    ....       2.300 sec  ( 42.2% of XC)
    Density eval.           ....       0.926 sec  ( 17.0% of XC)
    XC-Functional eval.     ....       0.489 sec  (  9.0% of XC)
    XC-Potential eval.      ....       1.128 sec  ( 20.7% of XC)
Diagonalization             ....       0.024 sec  (  0.0%)
Density matrix formation    ....       0.004 sec  (  0.0%)
Population analysis         ....       0.044 sec  (  0.1%)
Initial guess               ....       0.704 sec  (  1.0%)
Orbital Transformation      ....       0.000 sec  (  0.0%)
Orbital Orthonormalization  ....       0.000 sec  (  0.0%)
DIIS solution               ....       0.021 sec  (  0.0%)
SOSCF solution              ....       0.019 sec  (  0.0%)
Grid generation             ....       2.581 sec  (  3.8%)

-------------------------   --------------------
FINAL SINGLE POINT ENERGY      -538.373531223346
-------------------------   --------------------

------------------------------------------------------------------------------
                         ORCA SCF GRADIENT CALCULATION
------------------------------------------------------------------------------

Gradient of the Kohn-Sham DFT energy:
Kohn-Sham wavefunction type      ... RKS
Hartree-Fock exchange scaling    ...    0.200
Number of operators              ...    1
Number of atoms                  ...   25
Basis set dimensions             ...  127
Integral neglect threshold       ... 2.5e-11
Integral primitive cutoff        ... 2.5e-12

Nuclear repulsion gradient       ... done
One Electron Gradient            ... done
Pre-screening matrix             ... done
Starting the two electron gradient:
Two electron gradient done
Exchange-correlation gradient    ... done

------------------
CARTESIAN GRADIENT
------------------

   1   C   :   -0.012551032    0.003120009    0.000557582
   2   C   :    0.006260726   -0.002463004   -0.002196060
   3   C   :   -0.000296180   -0.000988231   -0.002188572
   4   C   :   -0.052097204   -0.006341278    0.005390081
   5   O   :   -0.004475728   -0.005437977    0.002975767
   6   H   :   -0.001024641    0.002635836   -0.001364600
   7   H   :    0.000402041    0.002458935    0.000049284
   8   H   :    0.001142177    0.002491041   -0.001554226
   9   H   :   -0.000699688    0.001592653   -0.000358293
  10   H   :    0.000613539    0.000982579    0.000754780
  11   H   :   -0.049376889   -0.001525479   -0.006205830
  12   H   :   -0.001866975    0.000797221    0.002695497
  13   C   :    0.025699102   -0.002309441    0.000130560
  14   H   :    0.000430622    0.002553253   -0.000356549
  15   C   :    0.009190803    0.013857086   -0.017684163
  16   C   :   -0.001727315   -0.007478992    0.005650735
  17   C   :    0.000776346   -0.002263135    0.000540628
  18   O   :    0.005370201    0.001745839   -0.000665036
  19   H   :    0.071711055    0.008196276    0.003070698
  20   O   :    0.005670762   -0.012399805    0.014655991
  21   H   :    0.003056569   -0.000112069   -0.004337041
  22   H   :   -0.002304369   -0.000258178    0.000330713
  23   H   :   -0.003836205    0.000343595    0.000351917
  24   H   :    0.000290571    0.000264855   -0.000258016
  25   H   :   -0.000358291    0.000538410    0.000014151

Difference to translation invariance:
           :    0.0000000000   -0.0000000000    0.0000000001

Norm of the cartesian gradient     ...    0.1124580181
RMS gradient                       ...    0.0129855334
MAX gradient                       ...    0.0717110553

-------
TIMINGS
-------

Total SCF gradient time            ...       22.445 sec

One electron gradient       ....       0.219 sec  (  1.0%)
Prescreening matrices       ....       0.044 sec  (  0.2%)
Two electron gradient       ....      13.829 sec  ( 61.6%)
XC gradient                 ....       8.202 sec  ( 36.5%)
------------------------------------------------------------------------------
                         ORCA GEOMETRY RELAXATION STEP
------------------------------------------------------------------------------

Reading the OPT-File                    .... done
Getting information on internals        .... done
Copying old internal coords+grads       .... done
Making the new internal coordinates     .... (new redundants).... done
Validating the new internal coordinates .... (new redundants).... done
Calculating the B-matrix                .... done
Calculating the G,G- and P matrices     .... done
Transforming gradient to internals      .... done
Projecting the internal gradient        .... done
Number of atoms                         ....  25
Number of internal coordinates          .... 149
Current Energy                          ....  -538.373531223 Eh
Current gradient norm                   ....     0.112458018 Eh/bohr
Maximum allowed component of the step   ....  0.300
Current trust radius                    ....  0.300
Evaluating the initial hessian          ....  (Almloef) done
Projecting the Hessian                  .... done
Forming the augmented Hessian           .... done
Diagonalizing the augmented Hessian     .... done
Last element of RFO vector              ....  0.789568012
Lowest eigenvalues of augmented Hessian:
 -0.364750745  0.033200222  0.033638015  0.041429298  0.045415134
Length of the computed step             ....  0.777213682
Warning: the length of the step is outside the trust region - taking restricted step instead
The input lambda is                     ....    -0.364751
   iter:   1  x=   -0.606002  g=    2.130815 f(x)=     0.514061
   iter:   2  x=   -0.901162  g=    0.718972 f(x)=     0.212212
   iter:   3  x=   -1.167021  g=    0.288131 f(x)=     0.076602
   iter:   4  x=   -1.299069  g=    0.153977 f(x)=     0.020332
   iter:   5  x=   -1.320454  g=    0.117934 f(x)=     0.002522
   iter:   6  x=   -1.320905  g=    0.113200 f(x)=     0.000051
   iter:   7  x=   -1.320905  g=    0.113103 f(x)=     0.000000
   iter:   8  x=   -1.320905  g=    0.113103 f(x)=     0.000000
   iter:   9  x=   -1.320905  g=    0.113103 f(x)=     0.000000
The output lambda is                    ....    -1.320905 (9 iterations)
The final length of the internal step   ....  0.300000000
Converting the step to cartesian space:
 Initial RMS(Int)=    0.0245769576
Transforming coordinates:
 Iter   0:  RMS(Cart)=    0.2804177533 RMS(Int)=    0.0253832511
 Iter   1:  RMS(Cart)=    0.0213135138 RMS(Int)=    0.0074817810
 Iter   2:  RMS(Cart)=    0.0049281977 RMS(Int)=    0.0012534102
 Iter   3:  RMS(Cart)=    0.0004873661 RMS(Int)=    0.0001709940
 Iter   4:  RMS(Cart)=    0.0000962116 RMS(Int)=    0.0000310608
 Iter   5:  RMS(Cart)=    0.0000143531 RMS(Int)=    0.0000043673
 Iter   6:  RMS(Cart)=    0.0000027611 RMS(Int)=    0.0000009617
 Iter   7:  RMS(Cart)=    0.0000003395 RMS(Int)=    0.0000001272
 Iter   8:  RMS(Cart)=    0.0000000586 RMS(Int)=    0.0000000256
Imposing constraints:
 Iter   0:  RMS(Cart)=    0.0004208702 RMS(Int)=    0.0001763890
 Iter   1:  RMS(Cart)=    0.0002095983 RMS(Int)=    0.0001050273
 Iter   2:  RMS(Cart)=    0.0001088568 RMS(Int)=    0.0000794203
 Iter   3:  RMS(Cart)=    0.0000600433 RMS(Int)=    0.0000704057
 Iter   4:  RMS(Cart)=    0.0000360618 RMS(Int)=    0.0000664045
 Iter   5:  RMS(Cart)=    0.0000241470 RMS(Int)=    0.0000638571
 Iter   6:  RMS(Cart)=    0.0000181291 RMS(Int)=    0.0000617726
 Iter   7:  RMS(Cart)=    0.0000149744 RMS(Int)=    0.0000598704
 Iter   8:  RMS(Cart)=    0.0000132071 RMS(Int)=    0.0000580665
 Iter   9:  RMS(Cart)=    0.0000121242 RMS(Int)=    0.0000563341
 Iter  10:  RMS(Cart)=    0.0000113916 RMS(Int)=    0.0000546637
 Iter  11:  RMS(Cart)=    0.0000108465 RMS(Int)=    0.0000530514
 Iter  12:  RMS(Cart)=    0.0000104066 RMS(Int)=    0.0000514946
 Iter  13:  RMS(Cart)=    0.0000100289 RMS(Int)=    0.0000499915
 Iter  14:  RMS(Cart)=    0.0000096901 RMS(Int)=    0.0000485402
 Iter  15:  RMS(Cart)=    0.0000093773 RMS(Int)=    0.0000471388
 Iter  16:  RMS(Cart)=    0.0000090833 RMS(Int)=    0.0000457858
 Iter  17:  RMS(Cart)=    0.0000088038 RMS(Int)=    0.0000444792
 Iter  18:  RMS(Cart)=    0.0000085361 RMS(Int)=    0.0000432175
 Iter  19:  RMS(Cart)=    0.0000082789 RMS(Int)=    0.0000419990
 Iter  20:  RMS(Cart)=    0.0000080310 RMS(Int)=    0.0000408221
 Iter  21:  RMS(Cart)=    0.0000077917 RMS(Int)=    0.0000396854
 Iter  22:  RMS(Cart)=    0.0000075606 RMS(Int)=    0.0000385873
 Iter  23:  RMS(Cart)=    0.0000073371 RMS(Int)=    0.0000375264
 Iter  24:  RMS(Cart)=    0.0000071209 RMS(Int)=    0.0000365013
 Iter  25:  RMS(Cart)=    0.0000069119 RMS(Int)=    0.0000355108
 Iter  26:  RMS(Cart)=    0.0000067096 RMS(Int)=    0.0000345536
 Iter  27:  RMS(Cart)=    0.0000065138 RMS(Int)=    0.0000336285
 Iter  28:  RMS(Cart)=    0.0000063243 RMS(Int)=    0.0000327342
 Iter  29:  RMS(Cart)=    0.0000061409 RMS(Int)=    0.0000318698
 Iter  30:  RMS(Cart)=    0.0000059634 RMS(Int)=    0.0000310340
 Iter  31:  RMS(Cart)=    0.0000057915 RMS(Int)=    0.0000302258
 Iter  32:  RMS(Cart)=    0.0000056251 RMS(Int)=    0.0000294443
 Iter  33:  RMS(Cart)=    0.0000054640 RMS(Int)=    0.0000286885
[...]
E(X)               :      -56.489432588194 Eh       
E(C)               :       -3.424808550015 Eh       
E(XC)              :      -59.914241138209 Eh       
DFET-embed. en.    :        0.000000000000 Eh       

---------------
SCF CONVERGENCE
---------------

  Last Energy change         ...   -6.1859e-09  Tolerance :   1.0000e-08
  Last MAX-Density change    ...    4.7177e-06  Tolerance :   1.0000e-07
  Last RMS-Density change    ...    2.4750e-07  Tolerance :   5.0000e-09
  Last Orbital Gradient      ...    6.5188e-07  Tolerance :   1.0000e-05
  Last Orbital Rotation      ...    1.2482e-06  Tolerance :   1.0000e-05

             **** THE GBW FILE WAS UPDATED (ensemble_345_75.gbw) ****
             **** DENSITY FILE WAS UPDATED (ensemble_345_75.scfp) ****
             **** ENERGY FILE WAS UPDATED (ensemble_345_75.en.tmp) ****
             **** THE GBW FILE WAS UPDATED (ensemble_345_75.gbw) ****
             **** DENSITY FILE WAS UPDATED (ensemble_345_75.scfp) ****
----------------
ORBITAL ENERGIES
----------------

  NO   OCC          E(Eh)            E(eV) 
   0   2.0000     -19.149495      -521.0842 
   1   2.0000     -19.136118      -520.7202 
   2   2.0000     -19.128277      -520.5069 
   3   2.0000     -10.277072      -279.6533 
   4   2.0000     -10.239074      -278.6194 
   5   2.0000     -10.229554      -278.3603 
   6   2.0000     -10.219336      -278.0823 
   7   2.0000     -10.218314      -278.0545 
   8   2.0000     -10.184727      -277.1405 
   9   2.0000     -10.182677      -277.0847 
  10   2.0000     -10.182039      -277.0674 
  11   2.0000      -1.050495       -28.5854 
  12   2.0000      -1.013315       -27.5737 
  13   2.0000      -0.988600       -26.9012 
  14   2.0000      -0.791812       -21.5463 
  15   2.0000      -0.777280       -21.1509 
  16   2.0000      -0.739126       -20.1126 
  17   2.0000      -0.720529       -19.6066 
  18   2.0000      -0.618922       -16.8417 
  19   2.0000      -0.598922       -16.2975 
  20   2.0000      -0.592979       -16.1358 
  21   2.0000      -0.564199       -15.3526 
  22   2.0000      -0.512013       -13.9326 
  23   2.0000      -0.503452       -13.6996 
  24   2.0000      -0.491975       -13.3873 
  25   2.0000      -0.482002       -13.1159 
  26   2.0000      -0.452089       -12.3020 
  27   2.0000      -0.441028       -12.0010 
  28   2.0000      -0.424982       -11.5644 
  29   2.0000      -0.413327       -11.2472 
  30   2.0000      -0.406903       -11.0724 
  31   2.0000      -0.378478       -10.2989 
  32   2.0000      -0.368531       -10.0282 
  33   2.0000      -0.364604        -9.9214 
  34   2.0000      -0.358781        -9.7629 
  35   2.0000      -0.354056        -9.6343 
  36   2.0000      -0.340724        -9.2716 
  37   2.0000      -0.327026        -8.8988 
  38   2.0000      -0.308326        -8.3900 
  39   2.0000      -0.298810        -8.1310 
  40   2.0000      -0.263102        -7.1594 
  41   2.0000      -0.249681        -6.7942 
  42   2.0000      -0.233644        -6.3578 
  43   0.0000       0.080132         2.1805 
  44   0.0000       0.093096         2.5333 
  45   0.0000       0.101073         2.7503 
  46   0.0000       0.110438         3.0052 
  47   0.0000       0.115554         3.1444 
  48   0.0000       0.129168         3.5149 
  49   0.0000       0.138717         3.7747 
  50   0.0000       0.145189         3.9508 
  51   0.0000       0.152263         4.1433 
  52   0.0000       0.153544         4.1782 
  53   0.0000       0.157101         4.2749 
  54   0.0000       0.166420         4.5285 
  55   0.0000       0.175697         4.7810 
  56   0.0000       0.178615         4.8604 
  57   0.0000       0.182934         4.9779 
  58   0.0000       0.188614         5.1325 
  59   0.0000       0.213753         5.8165 
  60   0.0000       0.225427         6.1342 
  61   0.0000       0.227816         6.1992 
  62   0.0000       0.242942         6.6108 
  63   0.0000       0.246905         6.7186 
  64   0.0000       0.269836         7.3426 
  65   0.0000       0.278066         7.5666 
  66   0.0000       0.288618         7.8537 
  67   0.0000       0.293919         7.9979 
  68   0.0000       0.319621         8.6973 
  69   0.0000       0.518675        14.1139 
  70   0.0000       0.535343        14.5674 
  71   0.0000       0.546398        14.8683 
  72   0.0000       0.559587        15.2271 
  73   0.0000       0.570031        15.5113 
  74   0.0000       0.579326        15.7642 
  75   0.0000       0.585399        15.9295 
  76   0.0000       0.587024        15.9737 
  77   0.0000       0.598015        16.2728 
  78   0.0000       0.600352        16.3364 
  79   0.0000       0.616305        16.7705 
  80   0.0000       0.630875        17.1670 
  81   0.0000       0.642481        17.4828 
  82   0.0000       0.650974        17.7139 
  83   0.0000       0.679344        18.4859 
  84   0.0000       0.684944        18.6383 
  85   0.0000       0.717903        19.5351 
  86   0.0000       0.739453        20.1215 
  87   0.0000       0.795268        21.6403 
  88   0.0000       0.806275        21.9399 
  89   0.0000       0.812024        22.0963 
  90   0.0000       0.837176        22.7807 
  91   0.0000       0.853651        23.2290 
  92   0.0000       0.865612        23.5545 
  93   0.0000       0.877499        23.8780 
  94   0.0000       0.885930        24.1074 
  95   0.0000       0.894566        24.3424 
  96   0.0000       0.907698        24.6997 
  97   0.0000       0.914006        24.8714 
  98   0.0000       0.937218        25.5030 
  99   0.0000       0.940677        25.5971 
 100   0.0000       0.950490        25.8642 
 101   0.0000       0.961488        26.1634 
 102   0.0000       0.966890        26.3104 
 103   0.0000       0.973566        26.4921 
 104   0.0000       0.993570        27.0364 
 105   0.0000       1.000900        27.2359 
 106   0.0000       1.012388        27.5485 
 107   0.0000       1.046671        28.4814 
 108   0.0000       1.105695        30.0875 
 109   0.0000       1.140214        31.0268 
 110   0.0000       1.164134        31.6777 
 111   0.0000       1.176315        32.0092 
 112   0.0000       1.241329        33.7783 
 113   0.0000       1.287238        35.0275 
 114   0.0000       1.335952        36.3531 
 115   0.0000       1.368650        37.2429 
 116   0.0000       1.376818        37.4651 
 117   0.0000       1.434795        39.0428 
 118   0.0000       1.462541        39.7978 
 119   0.0000       1.472423        40.0667 
 120   0.0000       1.516063        41.2542 
 121   0.0000       1.680219        45.7211 
 122   0.0000       1.706005        46.4228 
 123   0.0000       1.789644        48.6987 
 124   0.0000       1.889375        51.4125 
 125   0.0000       2.014862        54.8272 
 126   0.0000       2.176645        59.2295 

                    ********************************
                    * MULLIKEN POPULATION ANALYSIS *
                    ********************************

-----------------------
MULLIKEN ATOMIC CHARGES
-----------------------
   0 C :    0.316773
   1 C :   -0.262550
   2 C :   -0.314788
   3 C :   -0.026630
   4 O :   -0.519601
   5 H :    0.150008
   6 H :    0.144168
   7 H :    0.160833
   8 H :    0.144871
   9 H :    0.179615
  10 H :    0.147744
  11 H :    0.150294
  12 C :   -0.007127
  13 H :    0.123971
  14 C :    0.088438
  15 C :   -0.288908
  16 C :    0.000628
  17 O :   -0.526698
  18 H :    0.156446
  19 O :   -0.545300
  20 H :    0.137044
  21 H :    0.163145
  22 H :    0.140967
  23 H :    0.132310
  24 H :    0.154346
Sum of atomic charges:   -0.0000000

--------------------------------
MULLIKEN REDUCED ORBITAL CHARGES
--------------------------------
  0 C s       :     3.182728  s :     3.182728
      pz      :     0.818527  p :     2.500499
      px      :     0.661048
      py      :     1.020924
  1 C s       :     3.307015  s :     3.307015
      pz      :     0.971679  p :     2.955535
      px      :     1.050908
      py      :     0.932948
  2 C s       :     3.319097  s :     3.319097
      pz      :     0.922480  p :     2.995691
      px      :     1.085370
      py      :     0.987841
  3 C s       :     3.272308  s :     3.272308
      pz      :     0.967460  p :     2.754322
      px      :     1.046544
      py      :     0.740319
  4 O s       :     3.942292  s :     3.942292
      pz      :     1.434903  p :     4.577309
      px      :     1.624553
      py      :     1.517854
  5 H s       :     0.849992  s :     0.849992
  6 H s       :     0.855832  s :     0.855832
  7 H s       :     0.839167  s :     0.839167
  8 H s       :     0.855129  s :     0.855129
  9 H s       :     0.820385  s :     0.820385
 10 H s       :     0.852256  s :     0.852256
 11 H s       :     0.849706  s :     0.849706
 12 C s       :     3.265922  s :     3.265922
      pz      :     0.956879  p :     2.741205
      px      :     0.984163
      py      :     0.800162
 13 H s       :     0.876029  s :     0.876029
 14 C s       :     3.254624  s :     3.254624
      pz      :     0.771454  p :     2.656938
      px      :     0.878619
      py      :     1.006866
 15 C s       :     3.312959  s :     3.312959
      pz      :     1.088361  p :     2.975949
      px      :     0.924948
      py      :     0.962640
 16 C s       :     3.258513  s :     3.258513
      pz      :     0.921632  p :     2.740859
      px      :     0.855249
      py      :     0.963978
 17 O s       :     3.940178  s :     3.940178
      pz      :     1.670722  p :     4.586520
      px      :     1.399762
      py      :     1.516036
 18 H s       :     0.843554  s :     0.843554
 19 O s       :     3.916492  s :     3.916492
      pz      :     1.536542  p :     4.628808
      px      :     1.299307
      py      :     1.792959
 20 H s       :     0.862956  s :     0.862956
 21 H s       :     0.836855  s :     0.836855
 22 H s       :     0.859033  s :     0.859033
 23 H s       :     0.867690  s :     0.867690
 24 H s       :     0.845654  s :     0.845654


                     *******************************
                     * LOEWDIN POPULATION ANALYSIS *
                     *******************************

----------------------
LOEWDIN ATOMIC CHARGES
----------------------
   0 C :    0.182752
   1 C :   -0.217089
   2 C :   -0.221799
   3 C :   -0.035430
   4 O :   -0.324316
   5 H :    0.098081
   6 H :    0.113304
   7 H :    0.126315
   8 H :    0.116585
   9 H :    0.126035
  10 H :    0.100285
  11 H :    0.105755
  12 C :   -0.047448
  13 H :    0.093255
  14 C :    0.048236
  15 C :   -0.222719
  16 C :   -0.028436
  17 O :   -0.335924
  18 H :    0.115220
  19 O :   -0.339279
  20 H :    0.101437
  21 H :    0.128753
  22 H :    0.111476
  23 H :    0.096756
  24 H :    0.108197

-------------------------------
LOEWDIN REDUCED ORBITAL CHARGES
-------------------------------
  0 C s       :     2.949440  s :     2.949440
      pz      :     0.932952  p :     2.867808
      px      :     0.836562
      py      :     1.098294
  1 C s       :     2.979623  s :     2.979623
      pz      :     1.073470  p :     3.237467
      px      :     1.113674
      py      :     1.050323
  2 C s       :     2.971547  s :     2.971547
      pz      :     1.041478  p :     3.250252
      px      :     1.129658
      py      :     1.079116
  3 C s       :     2.987987  s :     2.987987
      pz      :     1.057816  p :     3.047443
      px      :     1.110692
      py      :     0.878935
  4 O s       :     3.602980  s :     3.602980
      pz      :     1.491492  p :     4.721337
      px      :     1.666985
      py      :     1.562860
  5 H s       :     0.901919  s :     0.901919
  6 H s       :     0.886696  s :     0.886696
  7 H s       :     0.873685  s :     0.873685
  8 H s       :     0.883415  s :     0.883415
  9 H s       :     0.873965  s :     0.873965
 10 H s       :     0.899715  s :     0.899715
 11 H s       :     0.894245  s :     0.894245
 12 C s       :     2.985600  s :     2.985600
      pz      :     1.084413  p :     3.061848
      px      :     1.047319
      py      :     0.930117
 13 H s       :     0.906745  s :     0.906745
 14 C s       :     2.952922  s :     2.952922
      pz      :     0.933741  p :     2.998842
      px      :     0.997211
      py      :     1.067890
 15 C s       :     2.978817  s :     2.978817
      pz      :     1.128340  p :     3.243901
      px      :     1.045909
      py      :     1.069652
 16 C s       :     2.982519  s :     2.982519
      pz      :     1.009969  p :     3.045916
      px      :     0.966241
      py      :     1.069707
 17 O s       :     3.604396  s :     3.604396
      pz      :     1.710089  p :     4.731528
      px      :     1.453620
      py      :     1.567819
 18 H s       :     0.884780  s :     0.884780
 19 O s       :     3.573508  s :     3.573508
      pz      :     1.579148  p :     4.765771
      px      :     1.362938
      py      :     1.823685
 20 H s       :     0.898563  s :     0.898563
 21 H s       :     0.871247  s :     0.871247
 22 H s       :     0.888524  s :     0.888524
 23 H s       :     0.903244  s :     0.903244
 24 H s       :     0.891803  s :     0.891803


                      *****************************
                      * MAYER POPULATION ANALYSIS *
                      *****************************

  NA   - Mulliken gross atomic population
  ZA   - Total nuclear charge
  QA   - Mulliken gross atomic charge
  VA   - Mayer's total valence
  BVA  - Mayer's bonded valence
  FA   - Mayer's free valence

  ATOM       NA         ZA         QA         VA         BVA        FA
  0 C      5.6832     6.0000     0.3168     3.6564     3.6564    -0.0000
  1 C      6.2625     6.0000    -0.2625     3.7188     3.7188    -0.0000
  2 C      6.3148     6.0000    -0.3148     3.7545     3.7545     0.0000
  3 C      6.0266     6.0000    -0.0266     3.6569     3.6569    -0.0000
  4 O      8.5196     8.0000    -0.5196     1.7850     1.7850    -0.0000
  5 H      0.8500     1.0000     0.1500     0.9271     0.9271    -0.0000
  6 H      0.8558     1.0000     0.1442     0.9338     0.9338    -0.0000
  7 H      0.8392     1.0000     0.1608     0.9397     0.9397     0.0000
  8 H      0.8551     1.0000     0.1449     0.9377     0.9377    -0.0000
  9 H      0.8204     1.0000     0.1796     0.9338     0.9338     0.0000
 10 H      0.8523     1.0000     0.1477     0.9253     0.9253    -0.0000
 11 H      0.8497     1.0000     0.1503     0.9284     0.9284    -0.0000
 12 C      6.0071     6.0000    -0.0071     3.6219     3.6219     0.0000
 13 H      0.8760     1.0000     0.1240     0.9280     0.9280    -0.0000
 14 C      5.9116     6.0000     0.0884     3.6551     3.6551     0.0000
 15 C      6.2889     6.0000    -0.2889     3.7358     3.7358     0.0000
 16 C      5.9994     6.0000     0.0006     3.6656     3.6656     0.0000
 17 O      8.5267     8.0000    -0.5267     1.7732     1.7732    -0.0000
 18 H      0.8436     1.0000     0.1564     0.9392     0.9392    -0.0000
 19 O      8.5453     8.0000    -0.5453     1.7136     1.7136    -0.0000
 20 H      0.8630     1.0000     0.1370     0.9354     0.9354    -0.0000
 21 H      0.8369     1.0000     0.1631     0.9424     0.9424    -0.0000
 22 H      0.8590     1.0000     0.1410     0.9334     0.9334    -0.0000
 23 H      0.8677     1.0000     0.1323     0.9271     0.9271    -0.0000
 24 H      0.8457     1.0000     0.1543     0.9279     0.9279    -0.0000

  Mayer bond orders larger than 0.100000
B(  0-C ,  1-C ) :   0.9353 B(  0-C ,  4-O ) :   0.9052 B(  0-C ,  5-H ) :   0.9300 
B(  0-C , 19-O ) :   0.8458 B(  1-C ,  2-C ) :   0.9550 B(  1-C ,  6-H ) :   0.9372 
B(  1-C ,  7-H ) :   0.9361 B(  2-C ,  3-C ) :   0.9555 B(  2-C ,  8-H ) :   0.9443 
B(  2-C ,  9-H ) :   0.9343 B(  3-C ,  4-O ) :   0.8304 B(  3-C , 10-H ) :   0.9173 
B(  3-C , 11-H ) :   0.9392 B( 12-C , 13-H ) :   0.9124 B( 12-C , 14-C ) :   0.9155 
B( 12-C , 17-O ) :   0.8647 B( 12-C , 18-H ) :   0.9183 B( 14-C , 15-C ) :   0.9569 
B( 14-C , 19-O ) :   0.8249 B( 14-C , 20-H ) :   0.9219 B( 15-C , 16-C ) :   0.9472 
B( 15-C , 21-H ) :   0.9363 B( 15-C , 22-H ) :   0.9429 B( 16-C , 17-O ) :   0.8525 
B( 16-C , 23-H ) :   0.9339 B( 16-C , 24-H ) :   0.9367 

-------
TIMINGS
-------

Total SCF time: 0 days 0 hours 0 min 26 sec 

Total time                  ....      26.711 sec
Sum of individual times     ....      26.407 sec  ( 98.9%)

Fock matrix formation       ....      23.791 sec  ( 89.1%)
  XC integration            ....       2.635 sec  ( 11.1% of F)
    Basis function eval.    ....       1.229 sec  ( 46.6% of XC)
    Density eval.           ....       0.468 sec  ( 17.8% of XC)
    XC-Functional eval.     ....       0.240 sec  (  9.1% of XC)
    XC-Potential eval.      ....       0.534 sec  ( 20.3% of XC)
Diagonalization             ....       0.003 sec  (  0.0%)
Density matrix formation    ....       0.002 sec  (  0.0%)
Population analysis         ....       0.019 sec  (  0.1%)
Initial guess               ....       0.004 sec  (  0.0%)
Orbital Transformation      ....       0.000 sec  (  0.0%)
Orbital Orthonormalization  ....       0.001 sec  (  0.0%)
DIIS solution               ....       0.001 sec  (  0.0%)
SOSCF solution              ....       0.010 sec  (  0.0%)
Grid generation             ....       2.577 sec  (  9.6%)

-------------------------   --------------------
FINAL SINGLE POINT ENERGY      -538.429872177391
-------------------------   --------------------

                                *** OPTIMIZATION RUN DONE ***

                            ***************************************
                            *     ORCA property calculations      *
                            ***************************************

                                    ---------------------
                                    Active property flags
                                    ---------------------
   (+) Dipole Moment


------------------------------------------------------------------------------
                       ORCA ELECTRIC PROPERTIES CALCULATION
------------------------------------------------------------------------------

Dipole Moment Calculation                       ... on
Quadrupole Moment Calculation                   ... off
Polarizability Calculation                      ... off
GBWName                                         ... ensemble_345_75.gbw
Electron density file                           ... ensemble_345_75.scfp
The origin for moment calculation is the CENTER OF MASS  = (-41.835486, 50.600486 89.801863)

-------------
DIPOLE MOMENT
-------------
                                X             Y             Z
Electronic contribution:      0.10590      -1.91094      -0.21713
Nuclear contribution   :     -0.00350       1.81217       0.05388
                        -----------------------------------------
Total Dipole Moment    :      0.10240      -0.09878      -0.16325
                        -----------------------------------------
Magnitude (a.u.)       :      0.21655
Magnitude (Debye)      :      0.55042



--------------------
Rotational spectrum 
--------------------
 
Rotational constants in cm-1:     0.068520     0.025365     0.023933 
Rotational constants in MHz :  2054.188273   760.412748   717.482542 

 Dipole components along the rotational axes: 
x,y,z [a.u.] :     0.128553     0.174249     0.002086 
x,y,z [Debye]:     0.326755     0.442907     0.005301 

 

Timings for individual modules:

Sum of individual times         ...      575.677 sec (=   9.595 min)
GTO integral calculation        ...        2.776 sec (=   0.046 min)   0.5 %
SCF iterations                  ...      394.013 sec (=   6.567 min)  68.4 %
SCF Gradient evaluation         ...      149.703 sec (=   2.495 min)  26.0 %
Geometry relaxation             ...       29.184 sec (=   0.486 min)   5.1 %
                             ****ORCA TERMINATED NORMALLY****
TOTAL RUN TIME: 0 days 0 hours 9 minutes 37 seconds 43 msec
