
                                 *****************
                                 * O   R   C   A *
                                 *****************

           --- An Ab Initio, DFT and Semiempirical electronic structure package ---

                  #######################################################
                  #                        -***-                        #
                  #          Department of theory and spectroscopy      #
                  #               Directorship: Frank Neese             #
                  #        Max Planck Institute fuer Kohlenforschung    #
                  #                Kaiser Wilhelm Platz 1               #
                  #                 D-45470 Muelheim/Ruhr               #
                  #                      Germany                        #
                  #                                                     #
                  #                  All rights reserved                #
                  #                        -***-                        #
                  #######################################################


                         Program Version 4.2.0 -  RELEASE  -


 With contributions from (in alphabetic order):
   Daniel Aravena         : Magnetic Suceptibility
   Michael Atanasov       : Ab Initio Ligand Field Theory (pilot matlab implementation)
   Alexander A. Auer      : GIAO ZORA, VPT2
   Ute Becker             : Parallelization
   Giovanni Bistoni       : ED, misc. LED, open-shell LED, HFLED
   Martin Brehm           : Molecular dynamics
   Dmytro Bykov           : SCF Hessian
   Vijay G. Chilkuri      : MRCI spin determinant printing, contributions to CSF-ICE
   Dipayan Datta          : RHF DLPNO-CCSD density
   Achintya Kumar Dutta   : EOM-CC, STEOM-CC
   Dmitry Ganyushin       : Spin-Orbit,Spin-Spin,Magnetic field MRCI
   Miquel Garcia          : C-PCM Hessian, Gaussian charge scheme
   Yang Guo               : DLPNO-NEVPT2, CIM, IAO-localization
   Andreas Hansen         : Spin unrestricted coupled pair/coupled cluster methods
   Benjamin Helmich-Paris : CASSCF linear response (MC-RPA)
   Lee Huntington         : MR-EOM, pCC
   Robert Izsak           : Overlap fitted RIJCOSX, COSX-SCS-MP3, EOM
   Christian Kollmar      : KDIIS, OOCD, Brueckner-CCSD(T), CCSD density
   Simone Kossmann        : Meta GGA functionals, TD-DFT gradient, OOMP2, MP2 Hessian
   Martin Krupicka        : AUTO-CI
   Lucas Lang             : DCDCAS
   Dagmar Lenk            : GEPOL surface, SMD
   Dimitrios Liakos       : Extrapolation schemes; Compound Job, initial MDCI parallelization
   Dimitrios Manganas     : Further ROCIS development; embedding schemes
   Dimitrios Pantazis     : SARC Basis sets
   Taras Petrenko         : DFT Hessian,TD-DFT gradient, ASA, ECA, R-Raman, ABS, FL, XAS/XES, NRVS
   Peter Pinski           : DLPNO-MP2, DLPNO-MP2 Gradient
   Christoph Reimann      : Effective Core Potentials
   Marius Retegan         : Local ZFS, SOC
   Christoph Riplinger    : Optimizer, TS searches, QM/MM, DLPNO-CCSD(T), (RO)-DLPNO pert. Triples
   Tobias Risthaus        : Range-separated hybrids, TD-DFT gradient, RPA, STAB
   Michael Roemelt        : Original ROCIS implementation
   Masaaki Saitow         : Open-shell DLPNO-CCSD energy and density
   Barbara Sandhoefer     : DKH picture change effects
   Avijit Sen             : IP-ROCIS
   Kantharuban Sivalingam : CASSCF convergence, NEVPT2, FIC-MRCI
   Bernardo de Souza      : ESD, SOC TD-DFT
   Georgi Stoychev        : AutoAux, RI-MP2 NMR
   Willem Van den Heuvel  : Paramagnetic NMR
   Boris Wezisla          : Elementary symmetry handling
   Frank Wennmohs         : Technical directorship


 We gratefully acknowledge several colleagues who have allowed us to
 interface, adapt or use parts of their codes:
   Stefan Grimme, W. Hujo, H. Kruse,             : VdW corrections, initial TS optimization,
                  C. Bannwarth                     DFT functionals, gCP, sTDA/sTD-DF
   Ed Valeev, F. Pavosevic, A. Kumar             : LibInt (2-el integral package), F12 methods
   Garnet Chan, S. Sharma, J. Yang, R. Olivares  : DMRG
   Ulf Ekstrom                                   : XCFun DFT Library
   Mihaly Kallay                                 : mrcc  (arbitrary order and MRCC methods)
   Andreas Klamt, Michael Diedenhofen            : otool_cosmo (COSMO solvation model)
   Jiri Pittner, Ondrej Demel                    : Mk-CCSD
   Frank Weinhold                                : gennbo (NPA and NBO analysis)
   Christopher J. Cramer and Donald G. Truhlar   : smd solvation model
   Lars Goerigk                                  : TD-DFT with DH, B97 family of functionals
   V. Asgeirsson, H. Jonsson                     : NEB implementation
   FAccTs GmbH                                   : IRC, NEB, NEB-TS, Multilevel, MM, QM/MM, CI optimization
   S Lehtola, MJT Oliveira, MAL Marques          : LibXC Library


 Your calculation uses the libint2 library for the computation of 2-el integrals
 For citations please refer to: http://libint.valeyev.net

 Your ORCA version has been built with support for libXC version: 4.2.3
 For citations please refer to: https://tddft.org/programs/libxc/

 This ORCA versions uses:
   CBLAS   interface :  Fast vector & matrix operations
   LAPACKE interface :  Fast linear algebra routines
   SCALAPACK package :  Parallel linear algebra routines


----- Orbital basis set information -----
Your calculation utilizes the basis: 6-31G
   H-He, Li-Ne : W. J. Hehre, R. Ditchfield and J.A. Pople, J. Chem. Phys. 56, 2257 (1972).
                 Note: He and Ne are unpublished basis sets taken from the Gaussian program.
                 Note: Li and B from J. D. Dill and J. A. Pople, J. Chem. Phys. 62, 2921 (1975).
   Na - Ar     : M. M. Francl, W. J. Pietro, W. J. Hehre, J. S. Binkley, M. S. Gordon, 
                 D. J. DeFrees and J. A. Pople, J. Chem. Phys. 77, 3654 (1982).
   K - Zn      : V. A. Rassolov, J. A. Pople, M. A. Ratner, and T. L. Windus, J. Chem. Phys. 109, 1223 (1998).

================================================================================
                                        WARNINGS
                       Please study these warnings very carefully!
================================================================================


WARNING: Geometry Optimization
  ===> : Switching off AutoStart
         For restart on a previous wavefunction, please use MOREAD

INFO   : the flag for use of LIBINT has been found!

================================================================================
                                       INPUT FILE
================================================================================
NAME = project_8052/ensemble_255_285.inp
|  1> # Test redundant internal optimization
|  2> #
|  3> ! RKS B3LYP  Opt TightSCF SmallPrint
|  4> 
|  5> %basis
|  6>         Basis "6-31G"
|  7> end
|  8> 
|  9> %geom
| 10> Constraints
| 11> { D 4  0  15  12  255.0   C } # D for Dihedral angle
| 12> { D 0  15  12  16  285.0   C } # D for Dihedral angle
| 13> { D 0  4  3  2   C } # D for Dihedral angle
| 14> { D 4  3  2  1   C } # D for Dihedral angle
| 15> { D 3  2  1  0   C } # D for Dihedral angle
| 16> { D 2  1  0  4   C } # D for Dihedral angle
| 17> { D 1  0  4  3   C } # D for Dihedral angle
| 18> { D 16  20  19  18   C } # D for Dihedral angle
| 19> { D 20  19  18  17   C } # D for Dihedral angle
| 20> { D 19  18  17  16   C } # D for Dihedral angle
| 21> { D 18  17  16  20   C } # D for Dihedral angle
| 22> { D 17  16  20  19   C } # D for Dihedral angle
| 23> { D 15  12  16  20   C } # D for Dihedral angle
| 24> end
| 25> end
| 26> 
| 27> 
| 28> #%pal 
| 29> #nprocs 8
| 30> #end
| 31> 
| 32> * xyz 0 1
| 33> C  -21.048   26.222   46.251
| 34> C  -20.361   27.558   45.944
| 35> C  -20.329   28.222   47.341
| 36> C  -20.110   27.022   48.296
| 37> O  -20.473   25.807   47.535
| 38> H  -20.833   25.428   45.533
| 39> H  -19.344   27.382   45.576
| 40> H  -20.898   28.157   45.201
| 41> H  -19.543   28.978   47.434
| 42> H  -21.289   28.710   47.548
| 43> H  -20.733   27.082   49.195
| 44> H  -19.064   26.913   48.597
| 45> C  -23.431   25.260   45.734
| 46> H  -23.009   24.288   46.019
| 47> H  -24.467   25.302   46.093
| 48> O  -22.586   26.394   46.375
| 49> C  -23.466   25.340   44.182
| 50> C  -24.400   24.279   43.590
| 51> C  -25.789   24.926   43.809
| 52> C  -25.509   26.436   43.607
| 53> O  -24.048   26.615   43.748
| 54> H  -22.444   25.308   43.799
| 55> O  -24.111   24.100   42.075
| 56> H  -24.305   23.303   44.078
| 57> H  -26.548   24.546   43.118
| 58> H  -26.138   24.731   44.830
| 59> H  -26.020   27.060   44.349
| 60> H  -25.781   26.781   42.605
| 61> H  -24.201   25.066   41.566
| 62> *
| 63> 
| 64>                          ****END OF INPUT****
================================================================================

                       *****************************
                       * Geometry Optimization Run *
                       *****************************

Geometry optimization settings:
Update method            Update   .... BFGS
Choice of coordinates    CoordSys .... Z-matrix Internals
Initial Hessian          InHess   .... Almoef's Model

Convergence Tolerances:
Energy Change            TolE     ....  5.0000e-06 Eh
Max. Gradient            TolMAXG  ....  3.0000e-04 Eh/bohr
RMS Gradient             TolRMSG  ....  1.0000e-04 Eh/bohr
Max. Displacement        TolMAXD  ....  4.0000e-03 bohr
RMS Displacement         TolRMSD  ....  2.0000e-03 bohr
Strict Convergence                ....  False
------------------------------------------------------------------------------
                        ORCA OPTIMIZATION COORDINATE SETUP
------------------------------------------------------------------------------

The optimization will be done in new redundant internal coordinates
Making redundant internal coordinates   ...  (new redundants) done
Evaluating the initial hessian          ...  (Almloef) done
Evaluating the coordinates              ...  done
Calculating the B-matrix                .... done
Calculating the G-matrix                .... done
Diagonalizing the G-matrix              .... done
Imposing constraints:
 Iter   0:  RMS(Cart)=    0.0001338687 RMS(Int)=    0.0000419870
 Iter   1:  RMS(Cart)=    0.0000654535 RMS(Int)=    0.0000227845
 Iter   2:  RMS(Cart)=    0.0000332065 RMS(Int)=    0.0000135761
 Iter   3:  RMS(Cart)=    0.0000177179 RMS(Int)=    0.0000088713
 Iter   4:  RMS(Cart)=    0.0000100462 RMS(Int)=    0.0000062833
 Iter   5:  RMS(Cart)=    0.0000060602 RMS(Int)=    0.0000047803
 Iter   6:  RMS(Cart)=    0.0000038558 RMS(Int)=    0.0000038863
 Iter   7:  RMS(Cart)=    0.0000025561 RMS(Int)=    0.0000033499
 Iter   8:  RMS(Cart)=    0.0000017503 RMS(Int)=    0.0000030224
 Iter   9:  RMS(Cart)=    0.0000012366 RMS(Int)=    0.0000028131
 Iter  10:  RMS(Cart)=    0.0000009080 RMS(Int)=    0.0000026689
 Iter  11:  RMS(Cart)=    0.0000007020 RMS(Int)=    0.0000025601
 Iter  12:  RMS(Cart)=    0.0000005774 RMS(Int)=    0.0000024707
 Iter  13:  RMS(Cart)=    0.0000005045 RMS(Int)=    0.0000023923
 Iter  14:  RMS(Cart)=    0.0000004620 RMS(Int)=    0.0000023206
 Iter  15:  RMS(Cart)=    0.0000004361 RMS(Int)=    0.0000022532
 Iter  16:  RMS(Cart)=    0.0000004186 RMS(Int)=    0.0000021890
 Iter  17:  RMS(Cart)=    0.0000004052 RMS(Int)=    0.0000021274
 Iter  18:  RMS(Cart)=    0.0000003937 RMS(Int)=    0.0000020680
 Iter  19:  RMS(Cart)=    0.0000003830 RMS(Int)=    0.0000020105
 Iter  20:  RMS(Cart)=    0.0000003728 RMS(Int)=    0.0000019549
 Iter  21:  RMS(Cart)=    0.0000003628 RMS(Int)=    0.0000019011
 Iter  22:  RMS(Cart)=    0.0000003531 RMS(Int)=    0.0000018490
 Iter  23:  RMS(Cart)=    0.0000003435 RMS(Int)=    0.0000017984
 Iter  24:  RMS(Cart)=    0.0000003341 RMS(Int)=    0.0000017494
 Iter  25:  RMS(Cart)=    0.0000003249 RMS(Int)=    0.0000017020
 Iter  26:  RMS(Cart)=    0.0000003160 RMS(Int)=    0.0000016559
 Iter  27:  RMS(Cart)=    0.0000003073 RMS(Int)=    0.0000016113
 Iter  28:  RMS(Cart)=    0.0000002988 RMS(Int)=    0.0000015680
 Iter  29:  RMS(Cart)=    0.0000002906 RMS(Int)=    0.0000015261
 Iter  30:  RMS(Cart)=    0.0000002825 RMS(Int)=    0.0000014854
 Iter  31:  RMS(Cart)=    0.0000002748 RMS(Int)=    0.0000014459
 Iter  32:  RMS(Cart)=    0.0000002672 RMS(Int)=    0.0000014077
 Iter  33:  RMS(Cart)=    0.0000002599 RMS(Int)=    0.0000013705
 Iter  34:  RMS(Cart)=    0.0000002527 RMS(Int)=    0.0000013345
 Iter  35:  RMS(Cart)=    0.0000002458 RMS(Int)=    0.0000012996
 Iter  36:  RMS(Cart)=    0.0000002391 RMS(Int)=    0.0000012657
 Iter  37:  RMS(Cart)=    0.0000002326 RMS(Int)=    0.0000012328
 Iter  38:  RMS(Cart)=    0.0000002263 RMS(Int)=    0.0000012009
 Iter  39:  RMS(Cart)=    0.0000002201 RMS(Int)=    0.0000011699
 Iter  40:  RMS(Cart)=    0.0000002142 RMS(Int)=    0.0000011399
 Iter  41:  RMS(Cart)=    0.0000002084 RMS(Int)=    0.0000011107
 Iter  42:  RMS(Cart)=    0.0000002028 RMS(Int)=    0.0000010824
 Iter  43:  RMS(Cart)=    0.0000001973 RMS(Int)=    0.0000010549
 Iter  44:  RMS(Cart)=    0.0000001920 RMS(Int)=    0.0000010282
 Iter  45:  RMS(Cart)=    0.0000001869 RMS(Int)=    0.0000010023
 Iter  46:  RMS(Cart)=    0.0000001819 RMS(Int)=    0.0000009772
 Iter  47:  RMS(Cart)=    0.0000001771 RMS(Int)=    0.0000009527
 Iter  48:  RMS(Cart)=    0.0000001724 RMS(Int)=    0.0000009290
 Iter  49:  RMS(Cart)=    0.0000001678 RMS(Int)=    0.0000009060
 Iter  50:  RMS(Cart)=    0.0000001634 RMS(Int)=    0.0000008836
 Iter  51:  RMS(Cart)=    0.0000001591 RMS(Int)=    0.0000008619
 Iter  52:  RMS(Cart)=    0.0000001549 RMS(Int)=    0.0000008408
 Iter  53:  RMS(Cart)=    0.0000001508 RMS(Int)=    0.0000008203
 Iter  54:  RMS(Cart)=    0.0000001469 RMS(Int)=    0.0000008004
 Iter  55:  RMS(Cart)=    0.0000001430 RMS(Int)=    0.0000007810
 Iter  56:  RMS(Cart)=    0.0000001393 RMS(Int)=    0.0000007622
 Iter  57:  RMS(Cart)=    0.0000001357 RMS(Int)=    0.0000007439
 Iter  58:  RMS(Cart)=    0.0000001322 RMS(Int)=    0.0000007262
 Iter  59:  RMS(Cart)=    0.0000001288 RMS(Int)=    0.0000007089
 Iter  60:  RMS(Cart)=    0.0000001254 RMS(Int)=    0.0000006921
 Iter  61:  RMS(Cart)=    0.0000001222 RMS(Int)=    0.0000006758
 Iter  62:  RMS(Cart)=    0.0000001191 RMS(Int)=    0.0000006600
 Iter  63:  RMS(Cart)=    0.0000001160 RMS(Int)=    0.0000006446
 Iter  64:  RMS(Cart)=    0.0000001131 RMS(Int)=    0.0000006296
 Iter  65:  RMS(Cart)=    0.0000001102 RMS(Int)=    0.0000006151
 Iter  66:  RMS(Cart)=    0.0000001074 RMS(Int)=    0.0000006009
 Iter  67:  RMS(Cart)=    0.0000001046 RMS(Int)=    0.0000005871
 Iter  68:  RMS(Cart)=    0.0000001020 RMS(Int)=    0.0000005737
 Iter  69:  RMS(Cart)=    0.0000000994 RMS(Int)=    0.0000005607
 Iter  70:  RMS(Cart)=    0.0000000969 RMS(Int)=    0.0000005481
 Iter  71:  RMS(Cart)=    0.0000000945 RMS(Int)=    0.0000005357
 Iter  72:  RMS(Cart)=    0.0000000921 RMS(Int)=    0.0000005237
 Iter  73:  RMS(Cart)=    0.0000000898 RMS(Int)=    0.0000005121
 Iter  74:  RMS(Cart)=    0.0000000876 RMS(Int)=    0.0000005007
 Iter  75:  RMS(Cart)=    0.0000000854 RMS(Int)=    0.0000004897
 Iter  76:  RMS(Cart)=    0.0000000833 RMS(Int)=    0.0000004790
 Iter  77:  RMS(Cart)=    0.0000000812 RMS(Int)=    0.0000004685
 Iter  78:  RMS(Cart)=    0.0000000792 RMS(Int)=    0.0000004583
 Iter  79:  RMS(Cart)=    0.0000000773 RMS(Int)=    0.0000004484
 Iter  80:  RMS(Cart)=    0.0000000754 RMS(Int)=    0.0000004388
 Iter  81:  RMS(Cart)=    0.0000000735 RMS(Int)=    0.0000004294
 Iter  82:  RMS(Cart)=    0.0000000717 RMS(Int)=    0.0000004203
 Iter  83:  RMS(Cart)=    0.0000000700 RMS(Int)=    0.0000004114
 Iter  84:  RMS(Cart)=    0.0000000683 RMS(Int)=    0.0000004027
 Iter  85:  RMS(Cart)=    0.0000000666 RMS(Int)=    0.0000003943
 Iter  86:  RMS(Cart)=    0.0000000650 RMS(Int)=    0.0000003861
 Iter  87:  RMS(Cart)=    0.0000000634 RMS(Int)=    0.0000003781
 Iter  88:  RMS(Cart)=    0.0000000619 RMS(Int)=    0.0000003703
 Iter  89:  RMS(Cart)=    0.0000000604 RMS(Int)=    0.0000003627
 Iter  90:  RMS(Cart)=    0.0000000590 RMS(Int)=    0.0000003553
 Iter  91:  RMS(Cart)=    0.0000000576 RMS(Int)=    0.0000003481
 Iter  92:  RMS(Cart)=    0.0000000562 RMS(Int)=    0.0000003411
 Iter  93:  RMS(Cart)=    0.0000000549 RMS(Int)=    0.0000003342
 Iter  94:  RMS(Cart)=    0.0000000536 RMS(Int)=    0.0000003276
 Iter  95:  RMS(Cart)=    0.0000000523 RMS(Int)=    0.0000003211
 Iter  96:  RMS(Cart)=    0.0000000511 RMS(Int)=    0.0000003147
 Iter  97:  RMS(Cart)=    0.0000000499 RMS(Int)=    0.0000003086
 Iter  98:  RMS(Cart)=    0.0000000487 RMS(Int)=    0.0000003025
 Iter  99:  RMS(Cart)=    0.0000000476 RMS(Int)=    0.0000002967
 RMS(Cart) too big - taking linear step, building new B-matrix and trying again
Imposing constraints:
 Iter   0:  RMS(Cart)=    0.0000654526 RMS(Int)=    0.0000227846
 Iter   1:  RMS(Cart)=    0.0000332061 RMS(Int)=    0.0000135761
 Iter   2:  RMS(Cart)=    0.0000177178 RMS(Int)=    0.0000088714
 Iter   3:  RMS(Cart)=    0.0000100462 RMS(Int)=    0.0000062834
 Iter   4:  RMS(Cart)=    0.0000060602 RMS(Int)=    0.0000047804
 Iter   5:  RMS(Cart)=    0.0000038558 RMS(Int)=    0.0000038864
 Iter   6:  RMS(Cart)=    0.0000025561 RMS(Int)=    0.0000033501
 Iter   7:  RMS(Cart)=    0.0000017503 RMS(Int)=    0.0000030226
 Iter   8:  RMS(Cart)=    0.0000012366 RMS(Int)=    0.0000028133
 Iter   9:  RMS(Cart)=    0.0000009081 RMS(Int)=    0.0000026691
 Iter  10:  RMS(Cart)=    0.0000007020 RMS(Int)=    0.0000025603
 Iter  11:  RMS(Cart)=    0.0000005774 RMS(Int)=    0.0000024709
 Iter  12:  RMS(Cart)=    0.0000005045 RMS(Int)=    0.0000023925
 Iter  13:  RMS(Cart)=    0.0000004621 RMS(Int)=    0.0000023208
 Iter  14:  RMS(Cart)=    0.0000004362 RMS(Int)=    0.0000022534
 Iter  15:  RMS(Cart)=    0.0000004187 RMS(Int)=    0.0000021892
 Iter  16:  RMS(Cart)=    0.0000004052 RMS(Int)=    0.0000021276
 Iter  17:  RMS(Cart)=    0.0000003937 RMS(Int)=    0.0000020682
 Iter  18:  RMS(Cart)=    0.0000003830 RMS(Int)=    0.0000020108
 Iter  19:  RMS(Cart)=    0.0000003728 RMS(Int)=    0.0000019552
 Iter  20:  RMS(Cart)=    0.0000003629 RMS(Int)=    0.0000019013
 Iter  21:  RMS(Cart)=    0.0000003531 RMS(Int)=    0.0000018492
 Iter  22:  RMS(Cart)=    0.0000003435 RMS(Int)=    0.0000017986
 Iter  23:  RMS(Cart)=    0.0000003341 RMS(Int)=    0.0000017497
 Iter  24:  RMS(Cart)=    0.0000003250 RMS(Int)=    0.0000017022
 Iter  25:  RMS(Cart)=    0.0000003160 RMS(Int)=    0.0000016562
 Iter  26:  RMS(Cart)=    0.0000003073 RMS(Int)=    0.0000016115
 Iter  27:  RMS(Cart)=    0.0000002988 RMS(Int)=    0.0000015683
 Iter  28:  RMS(Cart)=    0.0000002906 RMS(Int)=    0.0000015263
 Iter  29:  RMS(Cart)=    0.0000002826 RMS(Int)=    0.0000014856
 Iter  30:  RMS(Cart)=    0.0000002748 RMS(Int)=    0.0000014462
 Iter  31:  RMS(Cart)=    0.0000002672 RMS(Int)=    0.0000014079
 Iter  32:  RMS(Cart)=    0.0000002599 RMS(Int)=    0.0000013708
 Iter  33:  RMS(Cart)=    0.0000002528 RMS(Int)=    0.0000013348
 Iter  34:  RMS(Cart)=    0.0000002459 RMS(Int)=    0.0000012998
 Iter  35:  RMS(Cart)=    0.0000002391 RMS(Int)=    0.0000012659
 Iter  36:  RMS(Cart)=    0.0000002326 RMS(Int)=    0.0000012330
 Iter  37:  RMS(Cart)=    0.0000002263 RMS(Int)=    0.0000012011
 Iter  38:  RMS(Cart)=    0.0000002202 RMS(Int)=    0.0000011701
 Iter  39:  RMS(Cart)=    0.0000002142 RMS(Int)=    0.0000011401
 Iter  40:  RMS(Cart)=    0.0000002084 RMS(Int)=    0.0000011109
 Iter  41:  RMS(Cart)=    0.0000002028 RMS(Int)=    0.0000010826
 Iter  42:  RMS(Cart)=    0.0000001974 RMS(Int)=    0.0000010551
 Iter  43:  RMS(Cart)=    0.0000001921 RMS(Int)=    0.0000010284
 Iter  44:  RMS(Cart)=    0.0000001869 RMS(Int)=    0.0000010025
 Iter  45:  RMS(Cart)=    0.0000001820 RMS(Int)=    0.0000009774
CONVERGED
Small eigenvalue found = 8.385e-03
Small eigenvalue found = 1.173e-02
Small eigenvalue found = 1.823e-02
The first mode is                       ....   91
The number of degrees of freedom        ....   81
Storing new coordinates                 .... done

    -----------------------------------------------------------------
                    Redundant Internal Coordinates


    -----------------------------------------------------------------
         Definition                    Initial Value    Approx d2E/dq
    -----------------------------------------------------------------
      1. B(C   1,C   0)                  1.5333         0.369027   
      2. B(C   2,C   1)                  1.5471         0.350825   
      3. B(C   3,C   2)                  1.5492         0.348147   
      4. B(O   4,C   0)                  1.4668         0.422031   
      5. B(O   4,C   3)                  1.4789         0.403699   
      6. B(H   5,C   0)                  1.0919         0.357632   
      7. B(H   6,C   1)                  1.0958         0.352561   
      8. B(H   7,C   1)                  1.0951         0.353431   
      9. B(H   8,C   2)                  1.0945         0.354166   
     10. B(H   9,C   2)                  1.0966         0.351438   
     11. B(H  10,C   3)                  1.0954         0.353010   
     12. B(H  11,C   3)                  1.0939         0.354989   
     13. B(H  13,C  12)                  1.0973         0.350556   
     14. B(H  14,C  12)                  1.0972         0.350645   
     15. B(O  15,C   0)                  1.5525         0.307993   
     16. B(O  15,C  12)                  1.5527         0.307826   
     17. B(C  16,C  12)                  1.5545         0.341477   
     18. B(C  17,C  16)                  1.5325         0.370166   
     19. B(C  18,C  17)                  1.5479         0.349842   
     20. B(C  19,C  18)                  1.5490         0.348429   
     21. B(O  20,C  16)                  1.4672         0.421397   
     22. B(O  20,C  19)                  1.4787         0.404036   
     23. B(H  21,C  16)                  1.0919         0.357625   
     24. B(O  22,C  17)                  1.5527         0.307854   
     25. B(H  23,C  17)                  1.0953         0.353119   
     26. B(H  24,C  18)                  1.0945         0.354177   
     27. B(H  25,C  18)                  1.0965         0.351630   
     28. B(H  26,C  19)                  1.0959         0.352341   
     29. B(H  27,C  19)                  1.0941         0.354742   
     30. B(H  28,O  22)                  1.0956         0.315957   
     31. A(O   4,C   0,H   5)          107.0215         0.328541   
     32. A(C   1,C   0,O  15)          111.3020         0.348740   
     33. A(C   1,C   0,O   4)          104.2485         0.367935   
     34. A(O   4,C   0,O  15)          110.4735         0.354548   
     35. A(C   1,C   0,H   5)          114.4377         0.323302   
     36. A(H   5,C   0,O  15)          109.1577         0.312058   
     37. A(C   0,C   1,C   2)          101.6797         0.358729   
     38. A(C   2,C   1,H   7)          112.8319         0.320016   
     39. A(C   2,C   1,H   6)          110.6708         0.319888   
     40. A(C   0,C   1,H   6)          110.0677         0.322546   
     41. A(H   6,C   1,H   7)          108.3681         0.289027   
     42. A(C   0,C   1,H   7)          113.1243         0.322677   
     43. A(C   1,C   2,H   8)          112.8318         0.320125   
     44. A(C   1,C   2,C   3)          103.1267         0.355196   
     45. A(C   1,C   2,H   9)          110.0800         0.319721   
     46. A(C   3,C   2,H   9)          110.6152         0.319321   
     47. A(C   3,C   2,H   8)          112.4038         0.319725   
     48. A(H   8,C   2,H   9)          107.7728         0.288977   
     49. A(O   4,C   3,H  10)          109.1298         0.325449   
     50. A(C   2,C   3,H  10)          112.5253         0.319554   
     51. A(C   2,C   3,O   4)          106.5276         0.361529   
     52. A(O   4,C   3,H  11)          107.1237         0.325748   
     53. A(H  10,C   3,H  11)          108.8728         0.289284   
     54. A(C   2,C   3,H  11)          112.4566         0.319846   
     55. A(C   0,O   4,C   3)          108.3147         0.371320   
     56. A(H  14,C  12,C  16)          107.6577         0.318198   
     57. A(H  13,C  12,H  14)          108.1822         0.288412   
     58. A(H  13,C  12,O  15)          109.2930         0.311024   
     59. A(H  14,C  12,O  15)          110.5385         0.311037   
     60. A(O  15,C  12,C  16)          112.7582         0.344188   
     61. A(H  13,C  12,C  16)          108.2807         0.318185   
     62. A(C   0,O  15,C  12)          115.1653         0.336245   
     63. A(C  12,C  16,C  17)          111.3319         0.357272   
     64. A(C  12,C  16,O  20)          110.4255         0.362986   
     65. A(C  17,C  16,O  20)          104.2176         0.368035   
     66. A(C  12,C  16,H  21)          109.1258         0.319223   
     67. A(C  17,C  16,H  21)          114.4980         0.323465   
     68. A(O  20,C  16,H  21)          107.0381         0.328459   
     69. A(C  16,C  17,C  18)          101.7047         0.358746   
     70. A(C  16,C  17,O  22)          110.0781         0.348895   
     71. A(C  18,C  17,O  22)          110.6874         0.345594   
     72. A(C  16,C  17,H  23)          113.0754         0.322793   
     73. A(C  18,C  17,H  23)          112.7834         0.319824   
     74. A(O  22,C  17,H  23)          108.4122         0.311395   
     75. A(C  17,C  18,C  19)          103.1094         0.355076   
     76. A(C  17,C  18,H  24)          112.8202         0.319980   
     77. A(C  19,C  18,H  24)          112.4251         0.319769   
     78. A(C  17,C  18,H  25)          110.0618         0.319603   
     79. A(C  19,C  18,H  25)          110.6304         0.319392   
     80. A(H  24,C  18,H  25)          107.7825         0.289003   
     81. A(C  18,C  19,O  20)          106.5100         0.361630   
     82. A(C  18,C  19,H  26)          112.4871         0.319497   
     83. A(O  20,C  19,H  26)          109.0997         0.325392   
     84. A(C  18,C  19,H  27)          112.4510         0.319852   
     85. A(O  20,C  19,H  27)          107.1455         0.325755   
     86. A(H  26,C  19,H  27)          108.9416         0.289166   
     87. A(C  16,O  20,C  19)          108.3577         0.371278   
     88. A(C  17,O  22,H  28)          109.6562         0.303340   
     89. D(H   7,C   1,C   0,H   5)     82.1518         0.010890   
     90. D(C   2,C   1,C   0,O  15)     79.0868         0.010890   
     91. D(H   7,C   1,C   0,O  15)    -42.1868         0.010890   
     92. D(H   6,C   1,C   0,O   4)     77.3259         0.010890   
     93. D(H   6,C   1,C   0,O  15)   -163.5727         0.010890   
     94. D(H   6,C   1,C   0,H   5)    -39.2341         0.010890   
     95. D(H   7,C   1,C   0,O   4)   -161.2882         0.010890   
     96. D(C   2,C   1,C   0,O   4)    -40.0145         0.010890 C 
     97. D(C   2,C   1,C   0,H   5)   -156.5746         0.010890   
     98. D(H   9,C   2,C   1,H   6)    160.0776         0.009912   
     99. D(H   8,C   2,C   1,C   0)    156.5479         0.009912   
    100. D(H   8,C   2,C   1,H   6)     39.6446         0.009912   
    101. D(C   3,C   2,C   1,C   0)     35.0270         0.009912 C 
    102. D(H   8,C   2,C   1,H   7)    -81.9752         0.009912   
    103. D(H   9,C   2,C   1,C   0)    -83.0191         0.009912   
    104. D(C   3,C   2,C   1,H   6)    -81.8763         0.009912   
    105. D(H   9,C   2,C   1,H   7)     38.4578         0.009912   
    106. D(C   3,C   2,C   1,H   7)    156.5039         0.009912   
    107. D(H  11,C   3,C   2,H   9)   -143.4628         0.009774   
    108. D(O   4,C   3,C   2,H   8)   -140.0066         0.009774   
    109. D(O   4,C   3,C   2,H   9)     99.4739         0.009774   
    110. D(H  10,C   3,C   2,C   1)   -137.7432         0.009774   
    111. D(H  10,C   3,C   2,H   8)    100.4468         0.009774   
    112. D(H  10,C   3,C   2,H   9)    -20.0727         0.009774   
    113. D(H  11,C   3,C   2,C   1)     98.8667         0.009774   
    114. D(O   4,C   3,C   2,C   1)    -18.1967         0.009774 C 
    115. D(H  11,C   3,C   2,H   8)    -22.9433         0.009774   
    116. D(C   3,O   4,C   0,C   1)     29.5918         0.014035 C 
    117. D(C   3,O   4,C   0,H   5)    151.2015         0.014035   
    118. D(C   3,O   4,C   0,O  15)    -90.0711         0.014035   
    119. D(C   0,O   4,C   3,C   2)     -6.8732         0.012866 C 
    120. D(C   0,O   4,C   3,H  10)    114.8547         0.012866   
    121. D(C   0,O   4,C   3,H  11)   -127.4272         0.012866   
    122. D(C   0,O  15,C  12,C  16)    -75.0000         0.007786 C 
    123. D(C  12,O  15,C   0,O   4)   -105.0000         0.007793 C 
    124. D(C  12,O  15,C   0,H   5)     12.4190         0.007793   
    125. D(C   0,O  15,C  12,H  14)    164.4404         0.007786   
    126. D(C   0,O  15,C  12,H  13)     45.4805         0.007786   
    127. D(C  12,O  15,C   0,C   1)    139.6866         0.007793   
    128. D(C  17,C  16,C  12,H  13)     63.6460         0.009434   
    129. D(H  21,C  16,C  12,H  14)    179.5565         0.009434   
    130. D(C  17,C  16,C  12,O  15)   -175.2951         0.009434   
    131. D(O  20,C  16,C  12,H  13)    178.9102         0.009434   
    132. D(O  20,C  16,C  12,H  14)     62.1645         0.009434   
    133. D(O  20,C  16,C  12,O  15)    -60.0309         0.009434 C 
    134. D(C  17,C  16,C  12,H  14)    -53.0997         0.009434   
    135. D(H  21,C  16,C  12,H  13)    -63.6978         0.009434   
    136. D(H  21,C  16,C  12,O  15)     57.3611         0.009434   
    137. D(C  18,C  17,C  16,C  12)     79.0443         0.010953   
    138. D(C  18,C  17,C  16,O  20)    -39.9971         0.010953 C 
    139. D(C  18,C  17,C  16,H  21)   -156.5884         0.010953   
    140. D(O  22,C  17,C  16,C  12)   -163.5788         0.010953   
    141. D(O  22,C  17,C  16,O  20)     77.3797         0.010953   
    142. D(O  22,C  17,C  16,H  21)    -39.2115         0.010953   
    143. D(H  23,C  17,C  16,C  12)    -42.1624         0.010953   
    144. D(H  23,C  17,C  16,O  20)   -161.2038         0.010953   
    145. D(H  23,C  17,C  16,H  21)     82.2049         0.010953   
    146. D(H  24,C  18,C  17,H  23)    -82.0094         0.009861   
    147. D(C  19,C  18,C  17,O  22)    -81.8840         0.009861   
    148. D(C  19,C  18,C  17,H  23)    156.4613         0.009861   
    149. D(H  24,C  18,C  17,C  16)    156.5808         0.009861   
    150. D(C  19,C  18,C  17,C  16)     35.0515         0.009861 C 
    151. D(H  24,C  18,C  17,O  22)     39.6453         0.009861   
    152. D(H  25,C  18,C  17,C  16)    -82.9945         0.009861   
    153. D(H  25,C  18,C  17,O  22)    160.0700         0.009861   
    154. D(H  25,C  18,C  17,H  23)     38.4153         0.009861   
    155. D(H  27,C  19,C  18,H  25)   -143.4887         0.009788   
    156. D(O  20,C  19,C  18,H  24)   -140.0077         0.009788   
    157. D(O  20,C  19,C  18,H  25)     99.4355         0.009788   
    158. D(H  26,C  19,C  18,C  17)   -137.6878         0.009788   
    159. D(H  26,C  19,C  18,H  24)    100.5159         0.009788   
    160. D(H  26,C  19,C  18,H  25)    -20.0409         0.009788   
    161. D(H  27,C  19,C  18,C  17)     98.8644         0.009788   
    162. D(O  20,C  19,C  18,C  17)    -18.2114         0.009788 C 
    163. D(H  27,C  19,C  18,H  24)    -22.9319         0.009788   
    164. D(C  19,O  20,C  16,C  12)    -90.0837         0.013994   
    165. D(C  19,O  20,C  16,C  17)     29.5726         0.013994 C 
    166. D(C  19,O  20,C  16,H  21)    151.2439         0.013994   
    167. D(C  16,O  20,C  19,C  18)     -6.8387         0.012887 C 
    168. D(C  16,O  20,C  19,H  26)    114.8161         0.012887   
    169. D(C  16,O  20,C  19,H  27)   -127.3882         0.012887   
    170. D(H  28,O  22,C  17,C  16)    -55.8610         0.007787   
    171. D(H  28,O  22,C  17,C  18)     55.7872         0.007787   
    172. D(H  28,O  22,C  17,H  23)    179.9798         0.007787   
    -----------------------------------------------------------------

Number of atoms                         .... 29
Number of degrees of freedom            .... 172

         *************************************************************
         *                GEOMETRY OPTIMIZATION CYCLE   1            *
         *************************************************************
---------------------------------
CARTESIAN COORDINATES (ANGSTROEM)
---------------------------------
  C    -21.047905   26.221846   46.251133
  C    -20.360845   27.557792   45.944000
  C    -20.329002   28.222033   47.340894
  C    -20.110133   27.022183   48.296110
  O    -20.473058   25.807068   47.535270
  H    -20.832828   25.427744   45.533268
  H    -19.343805   27.381715   45.576148
  H    -20.897749   28.156680   45.200841
  H    -19.543003   28.978037   47.433862
  H    -21.289019   28.710082   47.547699
  H    -20.733239   27.082337   49.195027
  H    -19.064170   26.913217   48.597251
  C    -23.430885   25.259931   45.733886
  H    -23.008862   24.287944   46.018895
  H    -24.466901   25.301892   46.092846
  O    -22.585912   26.393930   46.374923
  C    -23.465997   25.340063   44.181895
  C    -24.399992   24.279061   43.589883
  C    -25.789012   24.925967   43.809044
  C    -25.509105   26.435996   43.607143
  O    -24.048106   26.615062   43.748042
  H    -22.444026   25.308138   43.798812
  O    -24.111100   24.100198   42.074846
  H    -24.304904   23.303028   44.077798
  H    -26.548047   24.545982   43.118074
  H    -26.137922   24.730866   44.830056
  H    -26.020079   27.059911   44.349232
  H    -25.781202   26.781061   42.605191
  H    -24.201191   25.066234   41.565930

----------------------------
CARTESIAN COORDINATES (A.U.)
----------------------------
  NO LB      ZA    FRAG     MASS         X           Y           Z
   0 C     6.0000    0    12.011  -39.774776   49.552108   87.401974
   1 C     6.0000    0    12.011  -38.476420   52.076680   86.821578
   2 C     6.0000    0    12.011  -38.416247   53.331913   89.461324
   3 C     6.0000    0    12.011  -38.002645   51.064526   91.266422
   4 O     8.0000    0    15.999  -38.688473   48.768292   89.828642
   5 H     1.0000    0     1.008  -39.368340   48.051473   86.045407
   6 H     1.0000    0     1.008  -36.554493   51.743942   86.126437
   7 H     1.0000    0     1.008  -39.491023   53.208414   85.417210
   8 H     1.0000    0     1.008  -36.930923   54.760554   89.637009
   9 H     1.0000    0     1.008  -40.230416   54.254192   89.852129
  10 H     1.0000    0     1.008  -39.180143   51.178200   92.965129
  11 H     1.0000    0     1.008  -36.026061   50.858610   91.835495
  12 C     6.0000    0    12.011  -44.277957   47.734352   86.424520
  13 H     1.0000    0     1.008  -43.480447   45.897563   86.963109
  14 H     1.0000    0     1.008  -46.235742   47.813646   87.102855
  15 O     8.0000    0    15.999  -42.681189   49.877300   87.635904
  16 C     6.0000    0    12.011  -44.344308   47.885779   83.491682
  17 C     6.0000    0    12.011  -46.109303   45.880777   82.372941
  18 C     6.0000    0    12.011  -48.734171   47.103251   82.787096
  19 C     6.0000    0    12.011  -48.205223   49.956793   82.405557
  20 O     8.0000    0    15.999  -45.444335   50.295178   82.671818
  21 H     1.0000    0     1.008  -42.413063   47.825449   82.767759
  22 O     8.0000    0    15.999  -45.563376   45.542774   79.509936
  23 H     1.0000    0     1.008  -45.929612   44.036340   83.294967
  24 H     1.0000    0     1.008  -50.168538   46.385184   81.481351
  25 H     1.0000    0     1.008  -49.393515   46.734564   84.716529
  26 H     1.0000    0     1.008  -49.170823   51.135822   83.807903
  27 H     1.0000    0     1.008  -48.719410   50.608872   80.512144
  28 H     1.0000    0     1.008  -45.733622   47.368318   78.548225

--------------------------------
INTERNAL COORDINATES (ANGSTROEM)
--------------------------------
 C      0   0   0     0.000000000000     0.00000000     0.00000000
 C      1   0   0     1.533334275362     0.00000000     0.00000000
 C      2   1   0     1.547103422529   101.67907390     0.00000000
 C      3   2   1     1.549188819996   103.12737509    35.02687180
 O      1   2   3     1.466801281701   104.24948604   319.98542309
 H      1   2   3     1.091872245274   114.43876658   203.42640133
 H      2   1   3     1.095759553917   110.06782188   117.34000099
 H      2   1   3     1.095088580892   113.12442239   238.72597460
 H      3   2   1     1.094523183857   112.83161078   156.54780790
 H      3   2   1     1.096628013503   110.07982737   276.98070077
 H      4   3   2     1.095413164062   112.52534669   222.25678475
 H      4   3   2     1.093891219455   112.45670684    98.86663270
 C      6   1   2     2.611173873950    78.47776017   227.74096390
 H     13   6   1     1.097311715056    72.20262734   238.45961675
 H     13   6   1     1.097242452697   164.18451428   332.42796208
 O      1   2   3     1.552547583812   111.30349807    79.08752829
 C     13   6   1     1.554454566721    86.68851275   128.06722491
 C     17  13   6     1.532495024462   111.33250836   133.67769565
 C     18  17  13     1.547866596319   101.70443240    79.04466549
 C     19  18  17     1.548968689161   103.10965571    35.05145332
 O     17  13   6     1.467209937262   110.42535315   248.94270935
 H     17  13   6     1.091877740409   109.12527523     6.33346379
 O     18  17  13     1.552670924568   110.07816418   196.42133569
 H     18  17  13     1.095328717783   113.07545423   317.83780136
 H     19  18  17     1.094514504244   112.82009255   156.58077647
 H     19  18  17     1.096479365971   110.06170044   277.00545481
 H     20  19  18     1.095929286040   112.48713579   222.31221038
 H     20  19  18     1.094080892805   112.45102763    98.86438945
 H     23  18  17     1.095598922964   109.65624217   304.13917268

---------------------------
INTERNAL COORDINATES (A.U.)
---------------------------
 C      0   0   0     0.000000000000     0.00000000     0.00000000
 C      1   0   0     2.897581852189     0.00000000     0.00000000
 C      2   1   0     2.923601769431   101.67907390     0.00000000
 C      3   2   1     2.927542599525   103.12737509    35.02687180
 O      1   2   3     2.771852715300   104.24948604   319.98542309
 H      1   2   3     2.063339516798   114.43876658   203.42640133
 H      2   1   3     2.070685465531   110.06782188   117.34000099
 H      2   1   3     2.069417510270   113.12442239   238.72597460
 H      3   2   1     2.068349064717   112.83161078   156.54780790
 H      3   2   1     2.072326616307   110.07982737   276.98070077
 H      4   3   2     2.070030883569   112.52534669   222.25678475
 H      4   3   2     2.067154825070   112.45670684    98.86663270
 C      6   1   2     4.934403509816    78.47776017   227.74096390
 H     13   6   1     2.073618625000    72.20262734   238.45961675
 H     13   6   1     2.073487738109   164.18451428   332.42796208
 O      1   2   3     2.933889743286   111.30349807    79.08752829
 C     13   6   1     2.937493418726    86.68851275   128.06722491
 C     17  13   6     2.895995897830   111.33250836   133.67769565
 C     18  17  13     2.925043958888   101.70443240    79.04466549
 C     19  18  17     2.927126612533   103.10965571    35.05145332
 O     17  13   6     2.772624962393   110.42535315   248.94270935
 H     17  13   6     2.063349901097   109.12527523     6.33346379
 O     18  17  13     2.934122823537   110.07816418   196.42133569
 H     18  17  13     2.069871303229   113.07545423   317.83780136
 H     19  18  17     2.068332662625   112.82009255   156.58077647
 H     19  18  17     2.072045713181   110.06170044   277.00545481
 H     20  19  18     2.071006212759   112.48713579   222.31221038
 H     20  19  18     2.067513255757   112.45102763    98.86438945
 H     23  18  17     2.070381917021   109.65624217   304.13917268

---------------------
BASIS SET INFORMATION
---------------------
There are 3 groups of distinct atoms

 Group   1 Type C   : 10s4p contracted to 3s2p pattern {631/31}
 Group   2 Type O   : 10s4p contracted to 3s2p pattern {631/31}
 Group   3 Type H   : 4s contracted to 2s pattern {31}

Atom   0C    basis set group =>   1
Atom   1C    basis set group =>   1
Atom   2C    basis set group =>   1
Atom   3C    basis set group =>   1
Atom   4O    basis set group =>   2
Atom   5H    basis set group =>   3
Atom   6H    basis set group =>   3
Atom   7H    basis set group =>   3
Atom   8H    basis set group =>   3
Atom   9H    basis set group =>   3
Atom  10H    basis set group =>   3
Atom  11H    basis set group =>   3
Atom  12C    basis set group =>   1
Atom  13H    basis set group =>   3
Atom  14H    basis set group =>   3
Atom  15O    basis set group =>   2
Atom  16C    basis set group =>   1
Atom  17C    basis set group =>   1
Atom  18C    basis set group =>   1
Atom  19C    basis set group =>   1
Atom  20O    basis set group =>   2
Atom  21H    basis set group =>   3
Atom  22O    basis set group =>   2
Atom  23H    basis set group =>   3
Atom  24H    basis set group =>   3
Atom  25H    basis set group =>   3
Atom  26H    basis set group =>   3
Atom  27H    basis set group =>   3
Atom  28H    basis set group =>   3
------------------------------------------------------------------------------
                           ORCA GTO INTEGRAL CALCULATION
------------------------------------------------------------------------------

                         BASIS SET STATISTICS AND STARTUP INFO

 # of primitive gaussian shells          ...  246
 # of primitive gaussian functions       ...  350
 # of contracted shells                  ...   97
 # of contracted basis functions         ...  149
 Highest angular momentum                ...    1
 Maximum contraction depth               ...    6
 Integral package used                   ... LIBINT
 Integral threshhold            Thresh   ...  2.500e-11
 Primitive cut-off              TCut     ...  2.500e-12


------------------------------ INTEGRAL EVALUATION ----------------------------


 * One electron integrals 
 Pre-screening matrix                    ... done
 Shell pair data                         ... done (   0.002 sec)

-------------------------------------------------------------------------------
                                 ORCA SCF
-------------------------------------------------------------------------------

------------
SCF SETTINGS
------------
Hamiltonian:
 Density Functional     Method          .... DFT(GTOs)
 Exchange Functional    Exchange        .... B88
   X-Alpha parameter    XAlpha          ....  0.666667
   Becke's b parameter  XBeta           ....  0.004200
 Correlation Functional Correlation     .... LYP
 LDA part of GGA corr.  LDAOpt          .... VWN-5
 Gradients option       PostSCFGGA      .... off
 Hybrid DFT is turned on
   Fraction HF Exchange ScalHFX         ....  0.200000
   Scaling of DF-GGA-X  ScalDFX         ....  0.720000
   Scaling of DF-GGA-C  ScalDFC         ....  0.810000
   Scaling of DF-LDA-C  ScalLDAC        ....  1.000000
   Perturbative correction              ....  0.000000
   Density functional embedding theory  .... OFF
   NL short-range parameter             ....  4.800000


General Settings:
 Integral files         IntName         .... project_8052/ensemble_255_285
 Hartree-Fock type      HFTyp           .... RHF
 Total Charge           Charge          ....    0
 Multiplicity           Mult            ....    1
 Number of Electrons    NEL             ....  102
 Basis Dimension        Dim             ....  149
 Nuclear Repulsion      ENuc            ....    850.8980363716 Eh

Convergence Acceleration:
 DIIS                   CNVDIIS         .... on
   Start iteration      DIISMaxIt       ....    12
   Startup error        DIISStart       ....  0.200000
   # of expansion vecs  DIISMaxEq       ....     5
   Bias factor          DIISBfac        ....   1.050
   Max. coefficient     DIISMaxC        ....  10.000
 Newton-Raphson         CNVNR           .... off
 SOSCF                  CNVSOSCF        .... on
   Start iteration      SOSCFMaxIt      ....   150
   Startup grad/error   SOSCFStart      ....  0.003300
 Level Shifting         CNVShift        .... on
   Level shift para.    LevelShift      ....    0.2500
   Turn off err/grad.   ShiftErr        ....    0.0010
 Zerner damping         CNVZerner       .... off
 Static damping         CNVDamp         .... on
   Fraction old density DampFac         ....    0.7000
   Max. Damping (<1)    DampMax         ....    0.9800
   Min. Damping (>=0)   DampMin         ....    0.0000
   Turn off err/grad.   DampErr         ....    0.1000
 Fernandez-Rico         CNVRico         .... off

SCF Procedure:
 Maximum # iterations   MaxIter         ....   125
 SCF integral mode      SCFMode         .... Direct
   Integral package                     .... LIBINT
 Reset frequency        DirectResetFreq ....    20
 Integral Threshold     Thresh          ....  2.500e-11 Eh
 Primitive CutOff       TCut            ....  2.500e-12 Eh

Convergence Tolerance:
 Convergence Check Mode ConvCheckMode   .... Total+1el-Energy
 Convergence forced     ConvForced      .... 0
 Energy Change          TolE            ....  1.000e-08 Eh
 1-El. energy change                    ....  1.000e-05 Eh
 Orbital Gradient       TolG            ....  1.000e-05
 Orbital Rotation angle TolX            ....  1.000e-05
 DIIS Error             TolErr          ....  5.000e-07


Diagonalization of the overlap matrix:
Smallest eigenvalue                        ... 4.115e-03
Time for diagonalization                   ...    0.006 sec
Threshold for overlap eigenvalues          ... 1.000e-08
Number of eigenvalues below threshold      ... 0
Time for construction of square roots      ...    0.014 sec
Total time needed                          ...    0.020 sec

-------------------
DFT GRID GENERATION
-------------------

General Integration Accuracy     IntAcc      ...  4.340
Radial Grid Type                 RadialGrid  ... Gauss-Chebyshev
Angular Grid (max. acc.)         AngularGrid ... Lebedev-110
Angular grid pruning method      GridPruning ... 3 (G Style)
Weight generation scheme         WeightScheme... Becke
Basis function cutoff            BFCut       ...    1.0000e-11
Integration weight cutoff        WCut        ...    1.0000e-14
Grids for H and He will be reduced by one unit

# of grid points (after initial pruning)     ...  34472 (   0.0 sec)
# of grid points (after weights+screening)   ...  31081 (   0.4 sec)
nearest neighbour list constructed           ...    0.0 sec
Grid point re-assignment to atoms done       ...    0.0 sec
Grid point division into batches done        ...    0.0 sec
Reduced shell lists constructed in    0.4 sec

Total number of grid points                  ...    31081
Total number of batches                      ...      498
Average number of points per batch           ...       62
Average number of grid points per atom       ...     1072
Average number of shells per batch           ...    56.24 (57.98%)
Average number of basis functions per batch  ...    91.29 (61.27%)
Average number of large shells per batch     ...    39.74 (70.66%)
Average number of large basis fcns per batch ...    65.80 (72.07%)
Maximum spatial batch extension              ...  22.68, 20.10, 19.86 au
Average spatial batch extension              ...   3.42,  3.51,  3.38 au

Time for grid setup =    0.825 sec

------------------------------
INITIAL GUESS: MODEL POTENTIAL
------------------------------
Loading Hartree-Fock densities                     ... done
Calculating cut-offs                               ... done
Setting up the integral package                    ... done
Initializing the effective Hamiltonian             ... done
Starting the Coulomb interaction                   ... done (   0.4 sec)
Reading the grid                                   ... done
Mapping shells                                     ... done
Starting the XC term evaluation                    ... done (   0.4 sec)
  promolecular density results
     # of electrons  =    101.990306993
     EX              =    -83.660771819
     EC              =     -3.455518460
     EX+EC           =    -87.116290279
Transforming the Hamiltonian                       ... done (   0.0 sec)
Diagonalizing the Hamiltonian                      ... done (   0.0 sec)
Back transforming the eigenvectors                 ... done (   0.0 sec)
Now organizing SCF variables                       ... done
                      ------------------
                      INITIAL GUESS DONE (   1.8 sec)
                      ------------------
--------------
SCF ITERATIONS
--------------
ITER       Energy         Delta-E        Max-DP      RMS-DP      [F,P]     Damp
               ***  Starting incremental Fock matrix formation  ***
  0   -652.5317365916   0.000000000000 0.07973629  0.00307529  0.2457352 0.7000
  1   -652.6736913341  -0.141954742473 0.04706836  0.00209654  0.0993573 0.7000
                               ***Turning on DIIS***
  2   -652.7266948923  -0.053003558238 0.05573909  0.00333692  0.0326335 0.0000
  3   -652.8143878928  -0.087693000455 0.03188711  0.00138560  0.0551934 0.0000
  4   -652.8318949000  -0.017507007220 0.00802921  0.00043118  0.0129884 0.0000
  5   -652.8329265748  -0.001031674830 0.00252495  0.00013019  0.0040910 0.0000
                      *** Initiating the SOSCF procedure ***
                           *** Shutting down DIIS ***
                      *** Re-Reading the Fockian *** 
                      *** Removing any level shift *** 
ITER      Energy       Delta-E        Grad      Rot      Max-DP    RMS-DP
  6   -652.83299607  -0.0000694943  0.000172  0.000172  0.000928  0.000057
               *** Restarting incremental Fock matrix formation ***
  7   -652.83299892  -0.0000028527  0.000148  0.000381  0.001098  0.000037
  8   -652.83299566   0.0000032611  0.000264  0.000260  0.000775  0.000024
  9   -652.83300052  -0.0000048591  0.000027  0.000053  0.000218  0.000007
 10   -652.83300046   0.0000000647  0.000039  0.000033  0.000127  0.000004
 11   -652.83300058  -0.0000001285  0.000007  0.000007  0.000036  0.000001
 12   -652.83300058   0.0000000032  0.000011  0.000005  0.000021  0.000001
                  ***Gradient check signals convergence***
              ***Rediagonalizing the Fockian in SOSCF/NRSCF***

               *****************************************************
               *                     SUCCESS                       *
               *           SCF CONVERGED AFTER  13 CYCLES          *
               *****************************************************

Setting up the final grid:

General Integration Accuracy     IntAcc      ...  4.670
Radial Grid Type                 RadialGrid  ... Gauss-Chebyshev
Angular Grid (max. acc.)         AngularGrid ... Lebedev-302
Angular grid pruning method      GridPruning ... 3 (G Style)
Weight generation scheme         WeightScheme... Becke
Basis function cutoff            BFCut       ...    1.0000e-11
Integration weight cutoff        WCut        ...    1.0000e-14
Grids for H and He will be reduced by one unit

# of grid points (after initial pruning)     ... 135060 (   0.1 sec)
# of grid points (after weights+screening)   ... 119319 (   1.5 sec)
nearest neighbour list constructed           ...    0.0 sec
Grid point re-assignment to atoms done       ...    0.0 sec
Grid point division into batches done        ...    0.5 sec
Reduced shell lists constructed in    1.7 sec

Total number of grid points                  ...   119319
Total number of batches                      ...     1879
Average number of points per batch           ...       63
Average number of grid points per atom       ...     4114
Average number of shells per batch           ...    51.19 (52.77%)
Average number of basis functions per batch  ...    83.31 (55.92%)
Average number of large shells per batch     ...    35.64 (69.63%)
Average number of large basis fcns per batch ...    59.16 (71.01%)
Maximum spatial batch extension              ...  20.07, 19.22, 17.94 au
Average spatial batch extension              ...   2.23,  2.27,  2.24 au

Final grid set up in    3.4 sec
Final integration                            ... done (   1.7 sec)
Change in XC energy                          ...    -0.000574086
Integrated number of electrons               ...   102.000130889
Previous integrated no of electrons          ...   101.998338019

----------------
TOTAL SCF ENERGY
----------------

Total Energy       :         -652.83357467 Eh          -17764.50470 eV

Components:
Nuclear Repulsion  :          850.89803637 Eh           23154.11270 eV
Electronic Energy  :        -1503.73161104 Eh          -40918.61740 eV
One Electron Energy:        -2579.71658181 Eh          -70197.65697 eV
Two Electron Energy:         1075.98497077 Eh           29279.03957 eV

Virial components:
Potential Energy   :        -1301.74551913 Eh          -35422.29641 eV
Kinetic Energy     :          648.91194446 Eh           17657.79171 eV
Virial Ratio       :            2.00604339


DFT components:
N(Alpha)           :       51.000065444570 electrons
N(Beta)            :       51.000065444570 electrons
N(Total)           :      102.000130889141 electrons
E(X)               :      -67.586868158439 Eh       
E(C)               :       -4.067779528279 Eh       
E(XC)              :      -71.654647686717 Eh       
DFET-embed. en.    :        0.000000000000 Eh       

---------------
SCF CONVERGENCE
---------------

  Last Energy change         ...   -5.2244e-09  Tolerance :   1.0000e-08
  Last MAX-Density change    ...    2.1193e-06  Tolerance :   1.0000e-07
  Last RMS-Density change    ...    1.0186e-07  Tolerance :   5.0000e-09
  Last Orbital Gradient      ...    3.2367e-07  Tolerance :   1.0000e-05
  Last Orbital Rotation      ...    6.0012e-07  Tolerance :   1.0000e-05

             **** THE GBW FILE WAS UPDATED (project_8052/ensemble_255_285.gbw) ****
             **** DENSITY FILE WAS UPDATED (project_8052/ensemble_255_285.scfp) ****
             **** ENERGY FILE WAS UPDATED (project_8052/ensemble_255_285.en.tmp) ****
             **** THE GBW FILE WAS UPDATED (project_8052/ensemble_255_285.gbw) ****
             **** DENSITY FILE WAS UPDATED (project_8052/ensemble_255_285.scfp) ****
----------------
ORBITAL ENERGIES
----------------

  NO   OCC          E(Eh)            E(eV) 
   0   2.0000     -19.149316      -521.0794 
   1   2.0000     -19.142104      -520.8831 
   2   2.0000     -19.141363      -520.8630 
   3   2.0000     -19.139593      -520.8148 
   4   2.0000     -10.280477      -279.7460 
   5   2.0000     -10.252858      -278.9944 
   6   2.0000     -10.239729      -278.6372 
   7   2.0000     -10.235728      -278.5283 
   8   2.0000     -10.233926      -278.4793 
   9   2.0000     -10.221664      -278.1456 
  10   2.0000     -10.198327      -277.5106 
  11   2.0000     -10.185746      -277.1682 
  12   2.0000     -10.182565      -277.0817 
  13   2.0000      -1.031419       -28.0663 
  14   2.0000      -1.026799       -27.9406 
  15   2.0000      -0.968151       -26.3447 
  16   2.0000      -0.956606       -26.0306 
  17   2.0000      -0.791187       -21.5293 
  18   2.0000      -0.781944       -21.2778 
  19   2.0000      -0.765420       -20.8281 
  20   2.0000      -0.728213       -19.8157 
  21   2.0000      -0.670877       -18.2555 
  22   2.0000      -0.604722       -16.4553 
  23   2.0000      -0.594404       -16.1745 
  24   2.0000      -0.591638       -16.0993 
  25   2.0000      -0.575690       -15.6653 
  26   2.0000      -0.517548       -14.0832 
  27   2.0000      -0.504309       -13.7230 
  28   2.0000      -0.490706       -13.3528 
  29   2.0000      -0.483680       -13.1616 
  30   2.0000      -0.465228       -12.6595 
  31   2.0000      -0.444763       -12.1026 
  32   2.0000      -0.440391       -11.9837 
  33   2.0000      -0.434460       -11.8222 
  34   2.0000      -0.424181       -11.5426 
  35   2.0000      -0.408860       -11.1256 
  36   2.0000      -0.398606       -10.8466 
  37   2.0000      -0.390726       -10.6322 
  38   2.0000      -0.378514       -10.2999 
  39   2.0000      -0.367547       -10.0015 
  40   2.0000      -0.359987        -9.7957 
  41   2.0000      -0.352439        -9.5903 
  42   2.0000      -0.347193        -9.4476 
  43   2.0000      -0.326796        -8.8926 
  44   2.0000      -0.317320        -8.6347 
  45   2.0000      -0.311318        -8.4714 
  46   2.0000      -0.298219        -8.1150 
  47   2.0000      -0.270424        -7.3586 
  48   2.0000      -0.267329        -7.2744 
  49   2.0000      -0.248555        -6.7635 
  50   2.0000      -0.236601        -6.4383 
  51   0.0000       0.033195         0.9033 
  52   0.0000       0.058383         1.5887 
  53   0.0000       0.077719         2.1148 
  54   0.0000       0.085712         2.3323 
  55   0.0000       0.098734         2.6867 
  56   0.0000       0.106169         2.8890 
  57   0.0000       0.116802         3.1784 
  58   0.0000       0.120787         3.2868 
  59   0.0000       0.127475         3.4688 
  60   0.0000       0.135020         3.6741 
  61   0.0000       0.144148         3.9225 
  62   0.0000       0.148216         4.0332 
  63   0.0000       0.155095         4.2204 
  64   0.0000       0.156259         4.2520 
  65   0.0000       0.162153         4.4124 
  66   0.0000       0.171204         4.6587 
  67   0.0000       0.176178         4.7940 
  68   0.0000       0.186742         5.0815 
  69   0.0000       0.189758         5.1636 
  70   0.0000       0.197650         5.3783 
  71   0.0000       0.220393         5.9972 
  72   0.0000       0.225390         6.1332 
  73   0.0000       0.232565         6.3284 
  74   0.0000       0.237020         6.4496 
  75   0.0000       0.247920         6.7462 
  76   0.0000       0.253615         6.9012 
  77   0.0000       0.269751         7.3403 
  78   0.0000       0.276551         7.5253 
  79   0.0000       0.292905         7.9704 
  80   0.0000       0.300590         8.1795 
  81   0.0000       0.527361        14.3502 
  82   0.0000       0.530078        14.4242 
  83   0.0000       0.544844        14.8259 
  84   0.0000       0.549870        14.9627 
  85   0.0000       0.554049        15.0764 
  86   0.0000       0.558064        15.1857 
  87   0.0000       0.566331        15.4107 
  88   0.0000       0.586169        15.9505 
  89   0.0000       0.587764        15.9939 
  90   0.0000       0.589907        16.0522 
  91   0.0000       0.609123        16.5751 
  92   0.0000       0.615641        16.7525 
  93   0.0000       0.632410        17.2087 
  94   0.0000       0.636094        17.3090 
  95   0.0000       0.650889        17.7116 
  96   0.0000       0.654729        17.8161 
  97   0.0000       0.680444        18.5158 
  98   0.0000       0.686646        18.6846 
  99   0.0000       0.696694        18.9580 
 100   0.0000       0.738121        20.0853 
 101   0.0000       0.750666        20.4266 
 102   0.0000       0.796576        21.6759 
 103   0.0000       0.801827        21.8188 
 104   0.0000       0.808561        22.0021 
 105   0.0000       0.825068        22.4512 
 106   0.0000       0.834327        22.7032 
 107   0.0000       0.848945        23.1010 
 108   0.0000       0.857048        23.3215 
 109   0.0000       0.866713        23.5845 
 110   0.0000       0.880559        23.9612 
 111   0.0000       0.895719        24.3737 
 112   0.0000       0.904427        24.6107 
 113   0.0000       0.906506        24.6673 
 114   0.0000       0.923670        25.1343 
 115   0.0000       0.927577        25.2407 
 116   0.0000       0.931229        25.3400 
 117   0.0000       0.941983        25.6327 
 118   0.0000       0.959565        26.1111 
 119   0.0000       0.966281        26.2938 
 120   0.0000       0.975786        26.5525 
 121   0.0000       0.982149        26.7256 
 122   0.0000       0.997803        27.1516 
 123   0.0000       1.010829        27.5061 
 124   0.0000       1.021508        27.7966 
 125   0.0000       1.043894        28.4058 
 126   0.0000       1.058642        28.8071 
 127   0.0000       1.087241        29.5853 
 128   0.0000       1.136151        30.9162 
 129   0.0000       1.153301        31.3829 
 130   0.0000       1.163949        31.6727 
 131   0.0000       1.209025        32.8992 
 132   0.0000       1.277558        34.7641 
 133   0.0000       1.291430        35.1416 
 134   0.0000       1.316229        35.8164 
 135   0.0000       1.324827        36.0504 
 136   0.0000       1.363326        37.0980 
 137   0.0000       1.391603        37.8674 
 138   0.0000       1.404304        38.2131 
 139   0.0000       1.480186        40.2779 
 140   0.0000       1.502628        40.8886 
 141   0.0000       1.592433        43.3323 
 142   0.0000       1.632941        44.4346 
 143   0.0000       1.680863        45.7386 
 144   0.0000       1.756333        47.7923 
 145   0.0000       1.839734        50.0617 
 146   0.0000       1.883194        51.2443 
 147   0.0000       2.052730        55.8576 
 148   0.0000       2.092739        56.9463 

                    ********************************
                    * MULLIKEN POPULATION ANALYSIS *
                    ********************************

-----------------------
MULLIKEN ATOMIC CHARGES
-----------------------
   0 C :    0.281181
   1 C :   -0.268438
   2 C :   -0.303100
   3 C :   -0.000224
   4 O :   -0.507017
   5 H :    0.141738
   6 H :    0.148117
   7 H :    0.168767
   8 H :    0.139990
   9 H :    0.167287
  10 H :    0.149476
  11 H :    0.139156
  12 C :   -0.024271
  13 H :    0.137985
  14 H :    0.146592
  15 O :   -0.497773
  16 C :    0.067378
  17 C :    0.067815
  18 C :   -0.307044
  19 C :   -0.023485
  20 O :   -0.507929
  21 H :    0.162165
  22 O :   -0.594242
  23 H :    0.156334
  24 H :    0.166670
  25 H :    0.145937
  26 H :    0.154518
  27 H :    0.140515
  28 H :    0.351902
Sum of atomic charges:   -0.0000000

--------------------------------
MULLIKEN REDUCED ORBITAL CHARGES
--------------------------------
  0 C s       :     3.226159  s :     3.226159
      pz      :     0.800452  p :     2.492661
      px      :     0.695738
      py      :     0.996470
  1 C s       :     3.307744  s :     3.307744
      pz      :     0.991610  p :     2.960694
      px      :     1.026322
      py      :     0.942762
  2 C s       :     3.316686  s :     3.316686
      pz      :     0.907456  p :     2.986414
      px      :     1.089300
      py      :     0.989658
  3 C s       :     3.259703  s :     3.259703
      pz      :     0.942098  p :     2.740521
      px      :     1.053274
      py      :     0.745149
  4 O s       :     3.943210  s :     3.943210
      pz      :     1.319465  p :     4.563806
      px      :     1.724434
      py      :     1.519907
  5 H s       :     0.858262  s :     0.858262
  6 H s       :     0.851883  s :     0.851883
  7 H s       :     0.831233  s :     0.831233
  8 H s       :     0.860010  s :     0.860010
  9 H s       :     0.832713  s :     0.832713
 10 H s       :     0.850524  s :     0.850524
 11 H s       :     0.860844  s :     0.860844
 12 C s       :     3.293834  s :     3.293834
      pz      :     0.894369  p :     2.730437
      px      :     0.971850
      py      :     0.864218
 13 H s       :     0.862015  s :     0.862015
 14 H s       :     0.853408  s :     0.853408
 15 O s       :     3.947920  s :     3.947920
      pz      :     1.765448  p :     4.549853
      px      :     1.227343
      py      :     1.557062
 16 C s       :     3.273651  s :     3.273651
      pz      :     0.922013  p :     2.658971
      px      :     1.013689
      py      :     0.723269
 17 C s       :     3.303779  s :     3.303779
      pz      :     0.703732  p :     2.628405
      px      :     0.909193
      py      :     1.015480
 18 C s       :     3.319212  s :     3.319212
      pz      :     1.080015  p :     2.987832
      px      :     0.974992
      py      :     0.932825
 19 C s       :     3.267131  s :     3.267131
      pz      :     1.091218  p :     2.756354
      px      :     0.697243
      py      :     0.967893
 20 O s       :     3.944020  s :     3.944020
      pz      :     1.823049  p :     4.563909
      px      :     1.253519
      py      :     1.487341
 21 H s       :     0.837835  s :     0.837835
 22 O s       :     3.951110  s :     3.951110
      pz      :     1.264331  p :     4.643132
      px      :     1.911549
      py      :     1.467252
 23 H s       :     0.843666  s :     0.843666
 24 H s       :     0.833330  s :     0.833330
 25 H s       :     0.854063  s :     0.854063
 26 H s       :     0.845482  s :     0.845482
 27 H s       :     0.859485  s :     0.859485
 28 H s       :     0.648098  s :     0.648098


                     *******************************
                     * LOEWDIN POPULATION ANALYSIS *
                     *******************************

----------------------
LOEWDIN ATOMIC CHARGES
----------------------
   0 C :    0.182798
   1 C :   -0.217665
   2 C :   -0.217116
   3 C :   -0.028435
   4 O :   -0.316664
   5 H :    0.100110
   6 H :    0.116142
   7 H :    0.130066
   8 H :    0.112783
   9 H :    0.121128
  10 H :    0.106453
  11 H :    0.100505
  12 C :   -0.043322
  13 H :    0.103226
  14 H :    0.113634
  15 O :   -0.351863
  16 C :    0.011093
  17 C :    0.041286
  18 C :   -0.237740
  19 C :   -0.037607
  20 O :   -0.322202
  21 H :    0.116536
  22 O :   -0.440860
  23 H :    0.120828
  24 H :    0.128411
  25 H :    0.112966
  26 H :    0.107946
  27 H :    0.099837
  28 H :    0.287724

-------------------------------
LOEWDIN REDUCED ORBITAL CHARGES
-------------------------------
  0 C s       :     2.979644  s :     2.979644
      pz      :     0.917590  p :     2.837558
      px      :     0.834953
      py      :     1.085016
  1 C s       :     2.976555  s :     2.976555
      pz      :     1.080187  p :     3.241110
      px      :     1.105830
      py      :     1.055093
  2 C s       :     2.973072  s :     2.973072
      pz      :     1.031474  p :     3.244044
      px      :     1.133658
      py      :     1.078912
  3 C s       :     2.983614  s :     2.983614
      pz      :     1.039571  p :     3.044820
      px      :     1.117466
      py      :     0.887783
  4 O s       :     3.608792  s :     3.608792
      pz      :     1.382992  p :     4.707871
      px      :     1.758397
      py      :     1.566482
  5 H s       :     0.899890  s :     0.899890
  6 H s       :     0.883858  s :     0.883858
  7 H s       :     0.869934  s :     0.869934
  8 H s       :     0.887217  s :     0.887217
  9 H s       :     0.878872  s :     0.878872
 10 H s       :     0.893547  s :     0.893547
 11 H s       :     0.899495  s :     0.899495
 12 C s       :     3.002569  s :     3.002569
      pz      :     1.032421  p :     3.040753
      px      :     1.046879
      py      :     0.961453
 13 H s       :     0.896774  s :     0.896774
 14 H s       :     0.886366  s :     0.886366
 15 O s       :     3.662313  s :     3.662313
      pz      :     1.788950  p :     4.689550
      px      :     1.296118
      py      :     1.604482
 16 C s       :     2.971408  s :     2.971408
      pz      :     1.060057  p :     3.017498
      px      :     1.076000
      py      :     0.881441
 17 C s       :     2.974850  s :     2.974850
      pz      :     0.839635  p :     2.983863
      px      :     1.043197
      py      :     1.101032
 18 C s       :     2.982853  s :     2.982853
      pz      :     1.128129  p :     3.254887
      px      :     1.074451
      py      :     1.052307
 19 C s       :     2.983251  s :     2.983251
      pz      :     1.141069  p :     3.054356
      px      :     0.839164
      py      :     1.074123
 20 O s       :     3.603682  s :     3.603682
      pz      :     1.849312  p :     4.718520
      px      :     1.325445
      py      :     1.543762
 21 H s       :     0.883464  s :     0.883464
 22 O s       :     3.693549  s :     3.693549
      pz      :     1.324724  p :     4.747310
      px      :     1.920777
      py      :     1.501809
 23 H s       :     0.879172  s :     0.879172
 24 H s       :     0.871589  s :     0.871589
 25 H s       :     0.887034  s :     0.887034
 26 H s       :     0.892054  s :     0.892054
 27 H s       :     0.900163  s :     0.900163
 28 H s       :     0.712276  s :     0.712276


                      *****************************
                      * MAYER POPULATION ANALYSIS *
                      *****************************

  NA   - Mulliken gross atomic population
  ZA   - Total nuclear charge
  QA   - Mulliken gross atomic charge
  VA   - Mayer's total valence
  BVA  - Mayer's bonded valence
  FA   - Mayer's free valence

  ATOM       NA         ZA         QA         VA         BVA        FA
  0 C      5.7188     6.0000     0.2812     3.6650     3.6650     0.0000
  1 C      6.2684     6.0000    -0.2684     3.7285     3.7285    -0.0000
  2 C      6.3031     6.0000    -0.3031     3.7670     3.7670     0.0000
  3 C      6.0002     6.0000    -0.0002     3.6589     3.6589    -0.0000
  4 O      8.5070     8.0000    -0.5070     1.8027     1.8027     0.0000
  5 H      0.8583     1.0000     0.1417     0.9343     0.9343    -0.0000
  6 H      0.8519     1.0000     0.1481     0.9298     0.9298    -0.0000
  7 H      0.8312     1.0000     0.1688     0.9379     0.9379    -0.0000
  8 H      0.8600     1.0000     0.1400     0.9367     0.9367    -0.0000
  9 H      0.8327     1.0000     0.1673     0.9307     0.9307     0.0000
 10 H      0.8505     1.0000     0.1495     0.9262     0.9262    -0.0000
 11 H      0.8608     1.0000     0.1392     0.9287     0.9287    -0.0000
 12 C      6.0243     6.0000    -0.0243     3.6519     3.6519    -0.0000
 13 H      0.8620     1.0000     0.1380     0.9283     0.9283     0.0000
 14 H      0.8534     1.0000     0.1466     0.9409     0.9409    -0.0000
 15 O      8.4978     8.0000    -0.4978     1.8081     1.8081     0.0000
 16 C      5.9326     6.0000     0.0674     3.5756     3.5756     0.0000
 17 C      5.9322     6.0000     0.0678     3.6357     3.6357    -0.0000
 18 C      6.3070     6.0000    -0.3070     3.7023     3.7023     0.0000
 19 C      6.0235     6.0000    -0.0235     3.6655     3.6655     0.0000
 20 O      8.5079     8.0000    -0.5079     1.7754     1.7754    -0.0000
 21 H      0.8378     1.0000     0.1622     0.9378     0.9378    -0.0000
 22 O      8.5942     8.0000    -0.5942     1.7596     1.7596     0.0000
 23 H      0.8437     1.0000     0.1563     0.9382     0.9382    -0.0000
 24 H      0.8333     1.0000     0.1667     0.9381     0.9381    -0.0000
 25 H      0.8541     1.0000     0.1459     0.9342     0.9342     0.0000
 26 H      0.8455     1.0000     0.1545     0.9255     0.9255    -0.0000
 27 H      0.8595     1.0000     0.1405     0.9300     0.9300     0.0000
 28 H      0.6481     1.0000     0.3519     0.8469     0.8469     0.0000

  Mayer bond orders larger than 0.100000
B(  0-C ,  1-C ) :   0.9393 B(  0-C ,  4-O ) :   0.9128 B(  0-C ,  5-H ) :   0.9174 
B(  0-C , 15-O ) :   0.8496 B(  1-C ,  2-C ) :   0.9594 B(  1-C ,  6-H ) :   0.9351 
B(  1-C ,  7-H ) :   0.9323 B(  2-C ,  3-C ) :   0.9536 B(  2-C ,  8-H ) :   0.9450 
B(  2-C ,  9-H ) :   0.9437 B(  3-C ,  4-O ) :   0.8402 B(  3-C , 10-H ) :   0.9343 
B(  3-C , 11-H ) :   0.9390 B( 12-C , 13-H ) :   0.9125 B( 12-C , 14-H ) :   0.9328 
B( 12-C , 15-O ) :   0.8860 B( 12-C , 16-C ) :   0.8712 B( 16-C , 17-C ) :   0.8891 
B( 16-C , 20-O ) :   0.8647 B( 16-C , 21-H ) :   0.9251 B( 17-C , 18-C ) :   0.9169 
B( 17-C , 22-O ) :   0.8884 B( 17-C , 23-H ) :   0.9306 B( 18-C , 19-C ) :   0.9369 
B( 18-C , 24-H ) :   0.9368 B( 18-C , 25-H ) :   0.9302 B( 19-C , 20-O ) :   0.8534 
B( 19-C , 26-H ) :   0.9323 B( 19-C , 27-H ) :   0.9380 B( 22-O , 28-H ) :   0.8072 


-------
TIMINGS
-------

Total SCF time: 0 days 0 hours 3 min 8 sec 

Total time                  ....     188.713 sec
Sum of individual times     ....     181.491 sec  ( 96.2%)

Fock matrix formation       ....     175.810 sec  ( 93.2%)
  XC integration            ....      36.848 sec  ( 21.0% of F)
    Basis function eval.    ....       3.631 sec  (  9.9% of XC)
    Density eval.           ....       2.039 sec  (  5.5% of XC)
    XC-Functional eval.     ....       0.990 sec  (  2.7% of XC)
    XC-Potential eval.      ....       2.009 sec  (  5.5% of XC)
Diagonalization             ....       0.183 sec  (  0.1%)
Density matrix formation    ....       0.008 sec  (  0.0%)
Population analysis         ....       0.011 sec  (  0.0%)
Initial guess               ....       1.001 sec  (  0.5%)
Orbital Transformation      ....       0.000 sec  (  0.0%)
Orbital Orthonormalization  ....       0.000 sec  (  0.0%)
DIIS solution               ....       0.156 sec  (  0.1%)
SOSCF solution              ....       0.105 sec  (  0.1%)
Grid generation             ....       4.217 sec  (  2.2%)

-------------------------   --------------------
FINAL SINGLE POINT ENERGY      -652.833574671980
-------------------------   --------------------

------------------------------------------------------------------------------
                         ORCA SCF GRADIENT CALCULATION
------------------------------------------------------------------------------

Gradient of the Kohn-Sham DFT energy:
Kohn-Sham wavefunction type      ... RKS
Hartree-Fock exchange scaling    ...    0.200
Number of operators              ...    1
Number of atoms                  ...   29
Basis set dimensions             ...  149
Integral neglect threshold       ... 2.5e-11
Integral primitive cutoff        ... 2.5e-12

Nuclear repulsion gradient       ... done
One Electron Gradient            ... done
Pre-screening matrix             ... done
Starting the two electron gradient:
Two electron gradient done
Exchange-correlation gradient    ... done

------------------
CARTESIAN GRADIENT
------------------

   1   C   :    0.019503904    0.009008120   -0.009337429
   2   C   :    0.012906168   -0.004943706   -0.003625527
   3   C   :   -0.000224190   -0.000312046   -0.001927131
   4   C   :    0.000466779   -0.004239090   -0.003169758
   5   O   :    0.010508000   -0.004860038    0.015919379
   6   H   :    0.002249088    0.001609316   -0.001476786
   7   H   :    0.000294974    0.003276580   -0.000175714
   8   H   :    0.000853941    0.002667547   -0.001303691
   9   H   :   -0.000722149    0.000610034    0.000099038
  10   H   :   -0.000501984    0.001664708    0.001097723
  11   H   :   -0.000358102    0.000895280    0.001402391
  12   H   :   -0.000531916    0.000975158    0.000583894
  13   C   :   -0.024760172   -0.013205713    0.003469066
  14   H   :   -0.002065983   -0.000891753   -0.003782852
  15   H   :   -0.008744381   -0.010711786   -0.009922807
  16   O   :   -0.008485636    0.023379630    0.019083456
  17   C   :   -0.004808296   -0.006730355   -0.016682642
  18   C   :   -0.000069410   -0.010472531    0.029835424
  19   C   :   -0.000855914   -0.001499219    0.004107782
  20   C   :    0.002313487   -0.001079573   -0.002228438
  21   O   :    0.000310800    0.001353414    0.003586065
  22   H   :    0.001844648    0.001884166    0.004822293
  23   O   :    0.011192640   -0.049895523   -0.004461263
  24   H   :   -0.002082589    0.001458989    0.011839020
  25   H   :   -0.002898051    0.001693463    0.000023109
  26   H   :    0.000315353    0.001185021    0.000575434
  27   H   :   -0.000462469    0.000239515    0.001408882
  28   H   :    0.000784060   -0.000477738   -0.000165871
  29   H   :   -0.005972600    0.057418132   -0.039593046

Difference to translation invariance:
           :    0.0000000001   -0.0000000001   -0.0000000000

Norm of the cartesian gradient     ...    0.1114639871
RMS gradient                       ...    0.0119501938
MAX gradient                       ...    0.0574181321

-------
TIMINGS
-------

Total SCF gradient time            ...       41.080 sec

One electron gradient       ....       0.360 sec  (  0.9%)
Prescreening matrices       ....       0.063 sec  (  0.2%)
Two electron gradient       ....      22.276 sec  ( 54.2%)
XC gradient                 ....      18.245 sec  ( 44.4%)
------------------------------------------------------------------------------
                         ORCA GEOMETRY RELAXATION STEP
------------------------------------------------------------------------------

Reading the OPT-File                    .... done
Getting information on internals        .... done
Copying old internal coords+grads       .... done
Making the new internal coordinates     .... (new redundants).... done
Validating the new internal coordinates .... (new redundants).... done
Calculating the B-matrix                .... done
Calculating the G,G- and P matrices     .... done
Transforming gradient to internals      .... done
Projecting the internal gradient        .... done
Number of atoms                         ....  29
Number of internal coordinates          .... 172
Current Energy                          ....  -652.833574672 Eh
Current gradient norm                   ....     0.111463987 Eh/bohr
Maximum allowed component of the step   ....  0.300
Current trust radius                    ....  0.300
Evaluating the initial hessian          ....  (Almloef) done
Projecting the Hessian                  .... done
Forming the augmented Hessian           .... done
Diagonalizing the augmented Hessian     .... done
Last element of RFO vector              ....  0.941499162
Lowest eigenvalues of augmented Hessian:
 -0.038440079  0.007894888  0.033032608  0.033102597  0.036712958
Length of the computed step             ....  0.357956052
Warning: the length of the step is outside the trust region - taking restricted step instead
The input lambda is                     ....    -0.038440
   iter:   1  x=   -0.072736  g=    1.111856 f(x)=     0.038133
   iter:   2  x=   -0.087403  g=    0.645671 f(x)=     0.009470
   iter:   3  x=   -0.088813  g=    0.545719 f(x)=     0.000770
   iter:   4  x=   -0.088824  g=    0.537544 f(x)=     0.000006
   iter:   5  x=   -0.088824  g=    0.537483 f(x)=     0.000000
   iter:   6  x=   -0.088824  g=    0.537483 f(x)=     0.000000
The output lambda is                    ....    -0.088824 (6 iterations)
The final length of the internal step   ....  0.300000000
Converting the step to cartesian space:
 Initial RMS(Int)=    0.0228747855
Transforming coordinates:
 Iter   0:  RMS(Cart)=    0.0881653397 RMS(Int)=    0.4783996163
 Iter   1:  RMS(Cart)=    0.0013846875 RMS(Int)=    0.0005071868
 Iter   2:  RMS(Cart)=    0.0000670278 RMS(Int)=    0.0000351055
 Iter   3:  RMS(Cart)=    0.0000040037 RMS(Int)=    0.0000026377
 Iter   4:  RMS(Cart)=    0.0000002668 RMS(Int)=    0.0000001894
 Iter   5:  RMS(Cart)=    0.0000000185 RMS(Int)=    0.0000000132
Imposing constraints:
 Iter   0:  RMS(Cart)=    0.0000309458 RMS(Int)=    0.0000205686
 Iter   1:  RMS(Cart)=    0.0000195858 RMS(Int)=    0.0000153947
 Iter   2:  RMS(Cart)=    0.0000129839 RMS(Int)=    0.0000121884
 Iter   3:  RMS(Cart)=    0.0000088771 RMS(Int)=    0.0000102154
 Iter   4:  RMS(Cart)=    0.0000062087 RMS(Int)=    0.0000090069
 Iter   5:  RMS(Cart)=    0.0000044344 RMS(Int)=    0.0000082511
 Iter   6:  RMS(Cart)=    0.0000032447 RMS(Int)=    0.0000077511
 Iter   7:  RMS(Cart)=    0.0000024488 RMS(Int)=    0.0000073913
 Iter   8:  RMS(Cart)=    0.0000019216 RMS(Int)=    0.0000071078
 Iter   9:  RMS(Cart)=    0.0000015767 RMS(Int)=    0.0000068668
 Iter  10:  RMS(Cart)=    0.0000013526 RMS(Int)=    0.0000066506
 Iter  11:  RMS(Cart)=    0.0000012059 RMS(Int)=    0.0000064502
 Iter  12:  RMS(Cart)=    0.0000011069 RMS(Int)=    0.0000062608
[...]
  29   2.0000      -0.489899       -13.3308 
  30   2.0000      -0.472785       -12.8651 
  31   2.0000      -0.454889       -12.3782 
  32   2.0000      -0.453501       -12.3404 
  33   2.0000      -0.440620       -11.9899 
  34   2.0000      -0.426807       -11.6140 
  35   2.0000      -0.411685       -11.2025 
  36   2.0000      -0.398564       -10.8455 
  37   2.0000      -0.394811       -10.7433 
  38   2.0000      -0.376437       -10.2434 
  39   2.0000      -0.369093       -10.0435 
  40   2.0000      -0.359156        -9.7731 
  41   2.0000      -0.351037        -9.5522 
  42   2.0000      -0.346531        -9.4296 
  43   2.0000      -0.335219        -9.1218 
  44   2.0000      -0.317978        -8.6526 
  45   2.0000      -0.310737        -8.4556 
  46   2.0000      -0.300411        -8.1746 
  47   2.0000      -0.275623        -7.5001 
  48   2.0000      -0.269305        -7.3282 
  49   2.0000      -0.249595        -6.7918 
  50   2.0000      -0.238045        -6.4775 
  51   0.0000       0.063171         1.7190 
  52   0.0000       0.086167         2.3447 
  53   0.0000       0.088084         2.3969 
  54   0.0000       0.093126         2.5341 
  55   0.0000       0.098660         2.6847 
  56   0.0000       0.113319         3.0836 
  57   0.0000       0.121312         3.3011 
  58   0.0000       0.125074         3.4034 
  59   0.0000       0.130313         3.5460 
  60   0.0000       0.143413         3.9025 
  61   0.0000       0.146018         3.9734 
  62   0.0000       0.156589         4.2610 
  63   0.0000       0.159465         4.3393 
  64   0.0000       0.165006         4.4900 
  65   0.0000       0.170488         4.6392 
  66   0.0000       0.178980         4.8703 
  67   0.0000       0.182494         4.9659 
  68   0.0000       0.194196         5.2844 
  69   0.0000       0.206656         5.6234 
  70   0.0000       0.214548         5.8381 
  71   0.0000       0.227114         6.1801 
  72   0.0000       0.229698         6.2504 
  73   0.0000       0.235516         6.4087 
  74   0.0000       0.239599         6.5198 
  75   0.0000       0.263041         7.1577 
  76   0.0000       0.269805         7.3418 
  77   0.0000       0.274534         7.4705 
  78   0.0000       0.284918         7.7530 
  79   0.0000       0.301273         8.1981 
  80   0.0000       0.323043         8.7904 
  81   0.0000       0.534835        14.5536 
  82   0.0000       0.536454        14.5977 
  83   0.0000       0.546658        14.8753 
  84   0.0000       0.551946        15.0192 
  85   0.0000       0.556193        15.1348 
  86   0.0000       0.564592        15.3633 
  87   0.0000       0.566273        15.4091 
  88   0.0000       0.585709        15.9380 
  89   0.0000       0.589972        16.0539 
  90   0.0000       0.591457        16.0944 
  91   0.0000       0.615703        16.7541 
  92   0.0000       0.622746        16.9458 
  93   0.0000       0.636086        17.3088 
  94   0.0000       0.636658        17.3243 
  95   0.0000       0.654967        17.8226 
  96   0.0000       0.655847        17.8465 
  97   0.0000       0.685046        18.6410 
  98   0.0000       0.702035        19.1033 
  99   0.0000       0.705683        19.2026 
 100   0.0000       0.744050        20.2466 
 101   0.0000       0.765390        20.8273 
 102   0.0000       0.796422        21.6717 
 103   0.0000       0.812202        22.1011 
 104   0.0000       0.828437        22.5429 
 105   0.0000       0.836576        22.7644 
 106   0.0000       0.839170        22.8350 
 107   0.0000       0.851096        23.1595 
 108   0.0000       0.855455        23.2781 
 109   0.0000       0.868731        23.6394 
 110   0.0000       0.880183        23.9510 
 111   0.0000       0.900303        24.4985 
 112   0.0000       0.903052        24.5733 
 113   0.0000       0.909905        24.7598 
 114   0.0000       0.924551        25.1583 
 115   0.0000       0.926677        25.2162 
 116   0.0000       0.936451        25.4821 
 117   0.0000       0.944638        25.7049 
 118   0.0000       0.956940        26.0397 
 119   0.0000       0.971189        26.4274 
 120   0.0000       0.974177        26.5087 
 121   0.0000       0.982846        26.7446 
 122   0.0000       0.988944        26.9105 
 123   0.0000       1.012495        27.5514 
 124   0.0000       1.021286        27.7906 
 125   0.0000       1.042695        28.3732 
 126   0.0000       1.067063        29.0363 
 127   0.0000       1.101675        29.9781 
 128   0.0000       1.131783        30.7974 
 129   0.0000       1.159411        31.5492 
 130   0.0000       1.180275        32.1169 
 131   0.0000       1.227783        33.4097 
 132   0.0000       1.272421        34.6243 
 133   0.0000       1.307038        35.5663 
 134   0.0000       1.328677        36.1551 
 135   0.0000       1.337923        36.4067 
 136   0.0000       1.372552        37.3490 
 137   0.0000       1.398132        38.0451 
 138   0.0000       1.409717        38.3603 
 139   0.0000       1.497227        40.7416 
 140   0.0000       1.521521        41.4027 
 141   0.0000       1.623573        44.1797 
 142   0.0000       1.664493        45.2931 
 143   0.0000       1.706887        46.4468 
 144   0.0000       1.793606        48.8065 
 145   0.0000       1.893240        51.5177 
 146   0.0000       1.919887        52.2428 
 147   0.0000       2.072614        56.3987 
 148   0.0000       2.137428        58.1624 

                    ********************************
                    * MULLIKEN POPULATION ANALYSIS *
                    ********************************

-----------------------
MULLIKEN ATOMIC CHARGES
-----------------------
   0 C :    0.278459
   1 C :   -0.254595
   2 C :   -0.300732
   3 C :   -0.000490
   4 O :   -0.509558
   5 H :    0.137741
   6 H :    0.139845
   7 H :    0.165053
   8 H :    0.139040
   9 H :    0.164968
  10 H :    0.147724
  11 H :    0.139164
  12 C :   -0.010057
  13 H :    0.135462
  14 H :    0.152596
  15 O :   -0.503008
  16 C :    0.054391
  17 C :    0.076272
  18 C :   -0.297021
  19 C :   -0.026699
  20 O :   -0.513742
  21 H :    0.159856
  22 O :   -0.600501
  23 H :    0.154368
  24 H :    0.165852
  25 H :    0.143105
  26 H :    0.153454
  27 H :    0.144223
  28 H :    0.364830
Sum of atomic charges:    0.0000000

--------------------------------
MULLIKEN REDUCED ORBITAL CHARGES
--------------------------------
  0 C s       :     3.195865  s :     3.195865
      pz      :     0.822140  p :     2.525677
      px      :     0.689145
      py      :     1.014391
  1 C s       :     3.301046  s :     3.301046
      pz      :     0.981665  p :     2.953548
      px      :     1.038418
      py      :     0.933465
  2 C s       :     3.315315  s :     3.315315
      pz      :     0.912132  p :     2.985417
      px      :     1.084831
      py      :     0.988453
  3 C s       :     3.260924  s :     3.260924
      pz      :     0.933942  p :     2.739566
      px      :     1.057136
      py      :     0.748488
  4 O s       :     3.938054  s :     3.938054
      pz      :     1.314640  p :     4.571504
      px      :     1.730576
      py      :     1.526288
  5 H s       :     0.862259  s :     0.862259
  6 H s       :     0.860155  s :     0.860155
  7 H s       :     0.834947  s :     0.834947
  8 H s       :     0.860960  s :     0.860960
  9 H s       :     0.835032  s :     0.835032
 10 H s       :     0.852276  s :     0.852276
 11 H s       :     0.860836  s :     0.860836
 12 C s       :     3.263893  s :     3.263893
      pz      :     0.911499  p :     2.746163
      px      :     0.957164
      py      :     0.877500
 13 H s       :     0.864538  s :     0.864538
 14 H s       :     0.847404  s :     0.847404
 15 O s       :     3.919306  s :     3.919306
      pz      :     1.767621  p :     4.583702
      px      :     1.228972
      py      :     1.587109
 16 C s       :     3.271500  s :     3.271500
      pz      :     0.949974  p :     2.674109
      px      :     0.999454
      py      :     0.724680
 17 C s       :     3.267236  s :     3.267236
      pz      :     0.706153  p :     2.656492
      px      :     0.908704
      py      :     1.041635
 18 C s       :     3.315704  s :     3.315704
      pz      :     1.079896  p :     2.981317
      px      :     0.973391
      py      :     0.928031
 19 C s       :     3.269444  s :     3.269444
      pz      :     1.089997  p :     2.757255
      px      :     0.691277
      py      :     0.975981
 20 O s       :     3.944516  s :     3.944516
      pz      :     1.815208  p :     4.569226
      px      :     1.267287
      py      :     1.486731
 21 H s       :     0.840144  s :     0.840144
 22 O s       :     3.920267  s :     3.920267
      pz      :     1.293257  p :     4.680235
      px      :     1.887947
      py      :     1.499030
 23 H s       :     0.845632  s :     0.845632
 24 H s       :     0.834148  s :     0.834148
 25 H s       :     0.856895  s :     0.856895
 26 H s       :     0.846546  s :     0.846546
 27 H s       :     0.855777  s :     0.855777
 28 H s       :     0.635170  s :     0.635170


                     *******************************
                     * LOEWDIN POPULATION ANALYSIS *
                     *******************************

----------------------
LOEWDIN ATOMIC CHARGES
----------------------
   0 C :    0.171977
   1 C :   -0.217897
   2 C :   -0.216268
   3 C :   -0.026760
   4 O :   -0.324578
   5 H :    0.096029
   6 H :    0.111147
   7 H :    0.127417
   8 H :    0.112592
   9 H :    0.120497
  10 H :    0.105841
  11 H :    0.100911
  12 C :   -0.040090
  13 H :    0.100113
  14 H :    0.114256
  15 O :   -0.317688
  16 C :    0.001903
  17 C :    0.035240
  18 C :   -0.240251
  19 C :   -0.036974
  20 O :   -0.325814
  21 H :    0.112246
  22 O :   -0.413909
  23 H :    0.116458
  24 H :    0.127859
  25 H :    0.112850
  26 H :    0.107576
  27 H :    0.102074
  28 H :    0.283242

-------------------------------
LOEWDIN REDUCED ORBITAL CHARGES
-------------------------------
  0 C s       :     2.952973  s :     2.952973
      pz      :     0.933073  p :     2.875050
      px      :     0.851570
      py      :     1.090406
  1 C s       :     2.977090  s :     2.977090
      pz      :     1.076786  p :     3.240808
      px      :     1.111735
      py      :     1.052286
  2 C s       :     2.970962  s :     2.970962
      pz      :     1.034170  p :     3.245305
      px      :     1.132438
      py      :     1.078697
  3 C s       :     2.984114  s :     2.984114
      pz      :     1.032276  p :     3.042646
      px      :     1.121751
      py      :     0.888619
  4 O s       :     3.600158  s :     3.600158
      pz      :     1.381793  p :     4.724420
      px      :     1.768289
      py      :     1.574338
  5 H s       :     0.903971  s :     0.903971
  6 H s       :     0.888853  s :     0.888853
  7 H s       :     0.872583  s :     0.872583
  8 H s       :     0.887408  s :     0.887408
  9 H s       :     0.879503  s :     0.879503
 10 H s       :     0.894159  s :     0.894159
 11 H s       :     0.899089  s :     0.899089
 12 C s       :     2.976938  s :     2.976938
      pz      :     1.046034  p :     3.063151
      px      :     1.031682
      py      :     0.985436
 13 H s       :     0.899887  s :     0.899887
 14 H s       :     0.885744  s :     0.885744
 15 O s       :     3.583044  s :     3.583044
      pz      :     1.791498  p :     4.734645
      px      :     1.306173
      py      :     1.636974
 16 C s       :     2.968601  s :     2.968601
      pz      :     1.074311  p :     3.029496
      px      :     1.071324
      py      :     0.883861
 17 C s       :     2.953649  s :     2.953649
      pz      :     0.866039  p :     3.011111
      px      :     1.040218
      py      :     1.104855
 18 C s       :     2.984787  s :     2.984787
      pz      :     1.129471  p :     3.255464
      px      :     1.076581
      py      :     1.049412
 19 C s       :     2.984071  s :     2.984071
      pz      :     1.140969  p :     3.052903
      px      :     0.833510
      py      :     1.078425
 20 O s       :     3.604241  s :     3.604241
      pz      :     1.841550  p :     4.721573
      px      :     1.337043
      py      :     1.542980
 21 H s       :     0.887754  s :     0.887754
 22 O s       :     3.614240  s :     3.614240
      pz      :     1.357386  p :     4.799669
      px      :     1.898496
      py      :     1.543787
 23 H s       :     0.883542  s :     0.883542
 24 H s       :     0.872141  s :     0.872141
 25 H s       :     0.887150  s :     0.887150
 26 H s       :     0.892424  s :     0.892424
 27 H s       :     0.897926  s :     0.897926
 28 H s       :     0.716758  s :     0.716758


                      *****************************
                      * MAYER POPULATION ANALYSIS *
                      *****************************

  NA   - Mulliken gross atomic population
  ZA   - Total nuclear charge
  QA   - Mulliken gross atomic charge
  VA   - Mayer's total valence
  BVA  - Mayer's bonded valence
  FA   - Mayer's free valence

  ATOM       NA         ZA         QA         VA         BVA        FA
  0 C      5.7215     6.0000     0.2785     3.6804     3.6804    -0.0000
  1 C      6.2546     6.0000    -0.2546     3.7278     3.7278     0.0000
  2 C      6.3007     6.0000    -0.3007     3.7688     3.7688     0.0000
  3 C      6.0005     6.0000    -0.0005     3.6632     3.6632     0.0000
  4 O      8.5096     8.0000    -0.5096     1.7824     1.7824    -0.0000
  5 H      0.8623     1.0000     0.1377     0.9380     0.9380    -0.0000
  6 H      0.8602     1.0000     0.1398     0.9327     0.9327     0.0000
  7 H      0.8349     1.0000     0.1651     0.9403     0.9403     0.0000
  8 H      0.8610     1.0000     0.1390     0.9371     0.9371    -0.0000
  9 H      0.8350     1.0000     0.1650     0.9330     0.9330     0.0000
 10 H      0.8523     1.0000     0.1477     0.9268     0.9268     0.0000
 11 H      0.8608     1.0000     0.1392     0.9294     0.9294     0.0000
 12 C      6.0101     6.0000    -0.0101     3.6405     3.6405     0.0000
 13 H      0.8645     1.0000     0.1355     0.9314     0.9314     0.0000
 14 H      0.8474     1.0000     0.1526     0.9389     0.9389     0.0000
 15 O      8.5030     8.0000    -0.5030     1.7557     1.7557     0.0000
 16 C      5.9456     6.0000     0.0544     3.5800     3.5800     0.0000
 17 C      5.9237     6.0000     0.0763     3.6417     3.6417    -0.0000
 18 C      6.2970     6.0000    -0.2970     3.6932     3.6932    -0.0000
 19 C      6.0267     6.0000    -0.0267     3.6643     3.6643     0.0000
 20 O      8.5137     8.0000    -0.5137     1.7723     1.7723     0.0000
 21 H      0.8401     1.0000     0.1599     0.9370     0.9370    -0.0000
 22 O      8.6005     8.0000    -0.6005     1.7440     1.7440     0.0000
 23 H      0.8456     1.0000     0.1544     0.9364     0.9364     0.0000
 24 H      0.8341     1.0000     0.1659     0.9383     0.9383     0.0000
 25 H      0.8569     1.0000     0.1431     0.9359     0.9359    -0.0000
 26 H      0.8465     1.0000     0.1535     0.9257     0.9257     0.0000
 27 H      0.8558     1.0000     0.1442     0.9289     0.9289    -0.0000
 28 H      0.6352     1.0000     0.3648     0.8324     0.8324    -0.0000

  Mayer bond orders larger than 0.100000
B(  0-C ,  1-C ) :   0.9452 B(  0-C ,  4-O ) :   0.9187 B(  0-C ,  5-H ) :   0.9170 
B(  0-C , 15-O ) :   0.8489 B(  1-C ,  2-C ) :   0.9576 B(  1-C ,  6-H ) :   0.9391 
B(  1-C ,  7-H ) :   0.9339 B(  2-C ,  3-C ) :   0.9546 B(  2-C ,  8-H ) :   0.9454 
B(  2-C ,  9-H ) :   0.9436 B(  3-C ,  4-O ) :   0.8393 B(  3-C , 10-H ) :   0.9355 
B(  3-C , 11-H ) :   0.9401 B( 12-C , 13-H ) :   0.9120 B( 12-C , 14-H ) :   0.9398 
B( 12-C , 15-O ) :   0.8658 B( 12-C , 16-C ) :   0.8770 B( 16-C , 17-C ) :   0.8970 
B( 16-C , 20-O ) :   0.8623 B( 16-C , 21-H ) :   0.9216 B( 17-C , 18-C ) :   0.9120 
B( 17-C , 22-O ) :   0.8921 B( 17-C , 23-H ) :   0.9325 B( 18-C , 19-C ) :   0.9394 
B( 18-C , 24-H ) :   0.9373 B( 18-C , 25-H ) :   0.9345 B( 19-C , 20-O ) :   0.8479 
B( 19-C , 26-H ) :   0.9335 B( 19-C , 27-H ) :   0.9383 B( 22-O , 28-H ) :   0.7943 


-------
TIMINGS
-------

Total SCF time: 0 days 0 hours 1 min 0 sec 

Total time                  ....      60.305 sec
Sum of individual times     ....      59.779 sec  ( 99.1%)

Fock matrix formation       ....      54.908 sec  ( 91.0%)
  XC integration            ....       5.674 sec  ( 10.3% of F)
    Basis function eval.    ....       1.858 sec  ( 32.7% of XC)
    Density eval.           ....       0.963 sec  ( 17.0% of XC)
    XC-Functional eval.     ....       0.429 sec  (  7.6% of XC)
    XC-Potential eval.      ....       1.096 sec  ( 19.3% of XC)
Diagonalization             ....       0.089 sec  (  0.1%)
Density matrix formation    ....       0.003 sec  (  0.0%)
Population analysis         ....       0.017 sec  (  0.0%)
Initial guess               ....       0.012 sec  (  0.0%)
Orbital Transformation      ....       0.000 sec  (  0.0%)
Orbital Orthonormalization  ....       0.008 sec  (  0.0%)
DIIS solution               ....       0.003 sec  (  0.0%)
SOSCF solution              ....       0.034 sec  (  0.1%)
Grid generation             ....       4.713 sec  (  7.8%)

-------------------------   --------------------
FINAL SINGLE POINT ENERGY      -652.861810115303
-------------------------   --------------------

                                *** OPTIMIZATION RUN DONE ***

                            ***************************************
                            *     ORCA property calculations      *
                            ***************************************

                                    ---------------------
                                    Active property flags
                                    ---------------------
   (+) Dipole Moment


------------------------------------------------------------------------------
                       ORCA ELECTRIC PROPERTIES CALCULATION
------------------------------------------------------------------------------

Dipole Moment Calculation                       ... on
Quadrupole Moment Calculation                   ... off
Polarizability Calculation                      ... off
GBWName                                         ... project_8052/ensemble_255_285.gbw
Electron density file                           ... project_8052/ensemble_255_285.scfp
The origin for moment calculation is the CENTER OF MASS  = (-42.981648, 49.136927 85.500559)

-------------
DIPOLE MOMENT
-------------
                                X             Y             Z
Electronic contribution:      0.27217      -2.39768      -1.56549
Nuclear contribution   :     -0.71552       2.81406       1.53851
                        -----------------------------------------
Total Dipole Moment    :     -0.44335       0.41638      -0.02698
                        -----------------------------------------
Magnitude (a.u.)       :      0.60882
Magnitude (Debye)      :      1.54749



--------------------
Rotational spectrum 
--------------------
 
Rotational constants in cm-1:     0.066177     0.011623     0.011244 
Rotational constants in MHz :  1983.933453   348.447887   337.080623 

 Dipole components along the rotational axes: 
x,y,z [a.u.] :     0.197588    -0.546298     0.182137 
x,y,z [Debye]:     0.502228    -1.388579     0.462955 

 

Timings for individual modules:

Sum of individual times         ...     1180.722 sec (=  19.679 min)
GTO integral calculation        ...       12.582 sec (=   0.210 min)   1.1 %
SCF iterations                  ...      933.399 sec (=  15.557 min)  79.1 %
SCF Gradient evaluation         ...      231.801 sec (=   3.863 min)  19.6 %
Geometry relaxation             ...        2.941 sec (=   0.049 min)   0.2 %
                             ****ORCA TERMINATED NORMALLY****
TOTAL RUN TIME: 0 days 0 hours 20 minutes 3 seconds 570 msec
