
                                 *****************
                                 * O   R   C   A *
                                 *****************

           --- An Ab Initio, DFT and Semiempirical electronic structure package ---

                  #######################################################
                  #                        -***-                        #
                  #          Department of theory and spectroscopy      #
                  #               Directorship: Frank Neese             #
                  #        Max Planck Institute fuer Kohlenforschung    #
                  #                Kaiser Wilhelm Platz 1               #
                  #                 D-45470 Muelheim/Ruhr               #
                  #                      Germany                        #
                  #                                                     #
                  #                  All rights reserved                #
                  #                        -***-                        #
                  #######################################################


                         Program Version 4.2.0 -  RELEASE  -


 With contributions from (in alphabetic order):
   Daniel Aravena         : Magnetic Suceptibility
   Michael Atanasov       : Ab Initio Ligand Field Theory (pilot matlab implementation)
   Alexander A. Auer      : GIAO ZORA, VPT2
   Ute Becker             : Parallelization
   Giovanni Bistoni       : ED, misc. LED, open-shell LED, HFLED
   Martin Brehm           : Molecular dynamics
   Dmytro Bykov           : SCF Hessian
   Vijay G. Chilkuri      : MRCI spin determinant printing, contributions to CSF-ICE
   Dipayan Datta          : RHF DLPNO-CCSD density
   Achintya Kumar Dutta   : EOM-CC, STEOM-CC
   Dmitry Ganyushin       : Spin-Orbit,Spin-Spin,Magnetic field MRCI
   Miquel Garcia          : C-PCM Hessian, Gaussian charge scheme
   Yang Guo               : DLPNO-NEVPT2, CIM, IAO-localization
   Andreas Hansen         : Spin unrestricted coupled pair/coupled cluster methods
   Benjamin Helmich-Paris : CASSCF linear response (MC-RPA)
   Lee Huntington         : MR-EOM, pCC
   Robert Izsak           : Overlap fitted RIJCOSX, COSX-SCS-MP3, EOM
   Christian Kollmar      : KDIIS, OOCD, Brueckner-CCSD(T), CCSD density
   Simone Kossmann        : Meta GGA functionals, TD-DFT gradient, OOMP2, MP2 Hessian
   Martin Krupicka        : AUTO-CI
   Lucas Lang             : DCDCAS
   Dagmar Lenk            : GEPOL surface, SMD
   Dimitrios Liakos       : Extrapolation schemes; Compound Job, initial MDCI parallelization
   Dimitrios Manganas     : Further ROCIS development; embedding schemes
   Dimitrios Pantazis     : SARC Basis sets
   Taras Petrenko         : DFT Hessian,TD-DFT gradient, ASA, ECA, R-Raman, ABS, FL, XAS/XES, NRVS
   Peter Pinski           : DLPNO-MP2, DLPNO-MP2 Gradient
   Christoph Reimann      : Effective Core Potentials
   Marius Retegan         : Local ZFS, SOC
   Christoph Riplinger    : Optimizer, TS searches, QM/MM, DLPNO-CCSD(T), (RO)-DLPNO pert. Triples
   Tobias Risthaus        : Range-separated hybrids, TD-DFT gradient, RPA, STAB
   Michael Roemelt        : Original ROCIS implementation
   Masaaki Saitow         : Open-shell DLPNO-CCSD energy and density
   Barbara Sandhoefer     : DKH picture change effects
   Avijit Sen             : IP-ROCIS
   Kantharuban Sivalingam : CASSCF convergence, NEVPT2, FIC-MRCI
   Bernardo de Souza      : ESD, SOC TD-DFT
   Georgi Stoychev        : AutoAux, RI-MP2 NMR
   Willem Van den Heuvel  : Paramagnetic NMR
   Boris Wezisla          : Elementary symmetry handling
   Frank Wennmohs         : Technical directorship


 We gratefully acknowledge several colleagues who have allowed us to
 interface, adapt or use parts of their codes:
   Stefan Grimme, W. Hujo, H. Kruse,             : VdW corrections, initial TS optimization,
                  C. Bannwarth                     DFT functionals, gCP, sTDA/sTD-DF
   Ed Valeev, F. Pavosevic, A. Kumar             : LibInt (2-el integral package), F12 methods
   Garnet Chan, S. Sharma, J. Yang, R. Olivares  : DMRG
   Ulf Ekstrom                                   : XCFun DFT Library
   Mihaly Kallay                                 : mrcc  (arbitrary order and MRCC methods)
   Andreas Klamt, Michael Diedenhofen            : otool_cosmo (COSMO solvation model)
   Jiri Pittner, Ondrej Demel                    : Mk-CCSD
   Frank Weinhold                                : gennbo (NPA and NBO analysis)
   Christopher J. Cramer and Donald G. Truhlar   : smd solvation model
   Lars Goerigk                                  : TD-DFT with DH, B97 family of functionals
   V. Asgeirsson, H. Jonsson                     : NEB implementation
   FAccTs GmbH                                   : IRC, NEB, NEB-TS, Multilevel, MM, QM/MM, CI optimization
   S Lehtola, MJT Oliveira, MAL Marques          : LibXC Library


 Your calculation uses the libint2 library for the computation of 2-el integrals
 For citations please refer to: http://libint.valeyev.net

 Your ORCA version has been built with support for libXC version: 4.2.3
 For citations please refer to: https://tddft.org/programs/libxc/

 This ORCA versions uses:
   CBLAS   interface :  Fast vector & matrix operations
   LAPACKE interface :  Fast linear algebra routines
   SCALAPACK package :  Parallel linear algebra routines


----- Orbital basis set information -----
Your calculation utilizes the basis: 6-31G
   H-He, Li-Ne : W. J. Hehre, R. Ditchfield and J.A. Pople, J. Chem. Phys. 56, 2257 (1972).
                 Note: He and Ne are unpublished basis sets taken from the Gaussian program.
                 Note: Li and B from J. D. Dill and J. A. Pople, J. Chem. Phys. 62, 2921 (1975).
   Na - Ar     : M. M. Francl, W. J. Pietro, W. J. Hehre, J. S. Binkley, M. S. Gordon, 
                 D. J. DeFrees and J. A. Pople, J. Chem. Phys. 77, 3654 (1982).
   K - Zn      : V. A. Rassolov, J. A. Pople, M. A. Ratner, and T. L. Windus, J. Chem. Phys. 109, 1223 (1998).

================================================================================
                                        WARNINGS
                       Please study these warnings very carefully!
================================================================================


WARNING: Geometry Optimization
  ===> : Switching off AutoStart
         For restart on a previous wavefunction, please use MOREAD

INFO   : the flag for use of LIBINT has been found!

================================================================================
                                       INPUT FILE
================================================================================
NAME = project_8048/ensemble_225_90.inp
|  1> # Test redundant internal optimization
|  2> #
|  3> ! RKS B3LYP  Opt TightSCF SmallPrint
|  4> 
|  5> %basis
|  6>         Basis "6-31G"
|  7> end
|  8> 
|  9> %geom
| 10> Constraints
| 11> { D 4  0  15  12  225.0   C } # D for Dihedral angle
| 12> { D 0  15  12  16  90.0   C } # D for Dihedral angle
| 13> { D 0  4  3  2   C } # D for Dihedral angle
| 14> { D 4  3  2  1   C } # D for Dihedral angle
| 15> { D 3  2  1  0   C } # D for Dihedral angle
| 16> { D 2  1  0  4   C } # D for Dihedral angle
| 17> { D 1  0  4  3   C } # D for Dihedral angle
| 18> { D 16  20  19  18   C } # D for Dihedral angle
| 19> { D 20  19  18  17   C } # D for Dihedral angle
| 20> { D 19  18  17  16   C } # D for Dihedral angle
| 21> { D 18  17  16  20   C } # D for Dihedral angle
| 22> { D 17  16  20  19   C } # D for Dihedral angle
| 23> { D 15  12  16  20   C } # D for Dihedral angle
| 24> end
| 25> end
| 26> 
| 27> 
| 28> #%pal 
| 29> #nprocs 8
| 30> #end
| 31> 
| 32> * xyz 0 1
| 33> C  -21.048   26.222   46.251
| 34> C  -20.361   27.558   45.944
| 35> C  -20.329   28.222   47.341
| 36> C  -20.110   27.022   48.296
| 37> O  -20.473   25.807   47.535
| 38> H  -20.833   25.428   45.533
| 39> H  -19.344   27.382   45.576
| 40> H  -20.898   28.157   45.201
| 41> H  -19.543   28.978   47.434
| 42> H  -21.289   28.710   47.548
| 43> H  -20.733   27.082   49.195
| 44> H  -19.064   26.913   48.597
| 45> C  -23.415   25.773   45.218
| 46> H  -24.332   26.358   45.075
| 47> H  -22.844   25.796   44.281
| 48> O  -22.586   26.394   46.375
| 49> C  -23.816   24.297   45.491
| 50> C  -22.586   23.432   45.791
| 51> C  -22.304   23.791   47.270
| 52> C  -23.721   23.997   47.858
| 53> O  -24.629   24.203   46.708
| 54> H  -24.433   23.935   44.667
| 55> O  -22.946   21.928   45.651
| 56> H  -21.737   23.647   45.133
| 57> H  -21.743   23.012   47.796
| 58> H  -21.723   24.719   47.328
| 59> H  -23.778   24.867   48.521
| 60> H  -24.082   23.117   48.399
| 61> H  -23.793   21.689   46.303
| 62> *
| 63> 
| 64>                          ****END OF INPUT****
================================================================================

                       *****************************
                       * Geometry Optimization Run *
                       *****************************

Geometry optimization settings:
Update method            Update   .... BFGS
Choice of coordinates    CoordSys .... Z-matrix Internals
Initial Hessian          InHess   .... Almoef's Model

Convergence Tolerances:
Energy Change            TolE     ....  5.0000e-06 Eh
Max. Gradient            TolMAXG  ....  3.0000e-04 Eh/bohr
RMS Gradient             TolRMSG  ....  1.0000e-04 Eh/bohr
Max. Displacement        TolMAXD  ....  4.0000e-03 bohr
RMS Displacement         TolRMSD  ....  2.0000e-03 bohr
Strict Convergence                ....  False
------------------------------------------------------------------------------
                        ORCA OPTIMIZATION COORDINATE SETUP
------------------------------------------------------------------------------

The optimization will be done in new redundant internal coordinates
Making redundant internal coordinates   ...  (new redundants) done
Evaluating the initial hessian          ...  (Almloef) done
Evaluating the coordinates              ...  done
Calculating the B-matrix                .... done
Calculating the G-matrix                .... done
Diagonalizing the G-matrix              .... done
Imposing constraints:
 Iter   0:  RMS(Cart)=    0.0000435679 RMS(Int)=    0.0000158400
 Iter   1:  RMS(Cart)=    0.0000218442 RMS(Int)=    0.0000086004
 Iter   2:  RMS(Cart)=    0.0000114677 RMS(Int)=    0.0000051110
 Iter   3:  RMS(Cart)=    0.0000063683 RMS(Int)=    0.0000033515
 Iter   4:  RMS(Cart)=    0.0000037578 RMS(Int)=    0.0000024160
 Iter   5:  RMS(Cart)=    0.0000023479 RMS(Int)=    0.0000018967
 Iter   6:  RMS(Cart)=    0.0000015390 RMS(Int)=    0.0000015997
 Iter   7:  RMS(Cart)=    0.0000010486 RMS(Int)=    0.0000014247
 Iter   8:  RMS(Cart)=    0.0000007387 RMS(Int)=    0.0000013161
 Iter   9:  RMS(Cart)=    0.0000005380 RMS(Int)=    0.0000012434
 Iter  10:  RMS(Cart)=    0.0000004074 RMS(Int)=    0.0000011899
 Iter  11:  RMS(Cart)=    0.0000003225 RMS(Int)=    0.0000011467
 Iter  12:  RMS(Cart)=    0.0000002682 RMS(Int)=    0.0000011093
 Iter  13:  RMS(Cart)=    0.0000002335 RMS(Int)=    0.0000010754
 Iter  14:  RMS(Cart)=    0.0000002113 RMS(Int)=    0.0000010436
 Iter  15:  RMS(Cart)=    0.0000001958 RMS(Int)=    0.0000010135
 Iter  16:  RMS(Cart)=    0.0000001851 RMS(Int)=    0.0000009846
 Iter  17:  RMS(Cart)=    0.0000001767 RMS(Int)=    0.0000009567
 Iter  18:  RMS(Cart)=    0.0000001695 RMS(Int)=    0.0000009298
 Iter  19:  RMS(Cart)=    0.0000001638 RMS(Int)=    0.0000009038
 Iter  20:  RMS(Cart)=    0.0000001581 RMS(Int)=    0.0000008786
 Iter  21:  RMS(Cart)=    0.0000001535 RMS(Int)=    0.0000008542
 Iter  22:  RMS(Cart)=    0.0000001483 RMS(Int)=    0.0000008306
 Iter  23:  RMS(Cart)=    0.0000001441 RMS(Int)=    0.0000008077
 Iter  24:  RMS(Cart)=    0.0000001397 RMS(Int)=    0.0000007855
 Iter  25:  RMS(Cart)=    0.0000001354 RMS(Int)=    0.0000007640
 Iter  26:  RMS(Cart)=    0.0000001314 RMS(Int)=    0.0000007431
 Iter  27:  RMS(Cart)=    0.0000001276 RMS(Int)=    0.0000007229
 Iter  28:  RMS(Cart)=    0.0000001239 RMS(Int)=    0.0000007033
 Iter  29:  RMS(Cart)=    0.0000001204 RMS(Int)=    0.0000006843
 Iter  30:  RMS(Cart)=    0.0000001167 RMS(Int)=    0.0000006659
 Iter  31:  RMS(Cart)=    0.0000001135 RMS(Int)=    0.0000006480
 Iter  32:  RMS(Cart)=    0.0000001100 RMS(Int)=    0.0000006307
 Iter  33:  RMS(Cart)=    0.0000001071 RMS(Int)=    0.0000006139
 Iter  34:  RMS(Cart)=    0.0000001041 RMS(Int)=    0.0000005976
 Iter  35:  RMS(Cart)=    0.0000001011 RMS(Int)=    0.0000005818
 Iter  36:  RMS(Cart)=    0.0000000983 RMS(Int)=    0.0000005665
 Iter  37:  RMS(Cart)=    0.0000000952 RMS(Int)=    0.0000005516
 Iter  38:  RMS(Cart)=    0.0000000928 RMS(Int)=    0.0000005371
 Iter  39:  RMS(Cart)=    0.0000000896 RMS(Int)=    0.0000005232
 Iter  40:  RMS(Cart)=    0.0000000877 RMS(Int)=    0.0000005096
 Iter  41:  RMS(Cart)=    0.0000000846 RMS(Int)=    0.0000004964
 Iter  42:  RMS(Cart)=    0.0000000828 RMS(Int)=    0.0000004836
 Iter  43:  RMS(Cart)=    0.0000000803 RMS(Int)=    0.0000004712
 Iter  44:  RMS(Cart)=    0.0000000783 RMS(Int)=    0.0000004591
 Iter  45:  RMS(Cart)=    0.0000000762 RMS(Int)=    0.0000004474
 Iter  46:  RMS(Cart)=    0.0000000734 RMS(Int)=    0.0000004361
 Iter  47:  RMS(Cart)=    0.0000000720 RMS(Int)=    0.0000004251
 Iter  48:  RMS(Cart)=    0.0000000697 RMS(Int)=    0.0000004144
 Iter  49:  RMS(Cart)=    0.0000000678 RMS(Int)=    0.0000004040
 Iter  50:  RMS(Cart)=    0.0000000660 RMS(Int)=    0.0000003939
 Iter  51:  RMS(Cart)=    0.0000000645 RMS(Int)=    0.0000003841
 Iter  52:  RMS(Cart)=    0.0000000621 RMS(Int)=    0.0000003746
 Iter  53:  RMS(Cart)=    0.0000000607 RMS(Int)=    0.0000003653
 Iter  54:  RMS(Cart)=    0.0000000591 RMS(Int)=    0.0000003564
 Iter  55:  RMS(Cart)=    0.0000000575 RMS(Int)=    0.0000003476
 Iter  56:  RMS(Cart)=    0.0000000556 RMS(Int)=    0.0000003392
 Iter  57:  RMS(Cart)=    0.0000000541 RMS(Int)=    0.0000003310
 Iter  58:  RMS(Cart)=    0.0000000537 RMS(Int)=    0.0000003230
 Iter  59:  RMS(Cart)=    0.0000000515 RMS(Int)=    0.0000003152
 Iter  60:  RMS(Cart)=    0.0000000498 RMS(Int)=    0.0000003076
 Iter  61:  RMS(Cart)=    0.0000000488 RMS(Int)=    0.0000003003
 Iter  62:  RMS(Cart)=    0.0000000475 RMS(Int)=    0.0000002932
 Iter  63:  RMS(Cart)=    0.0000000463 RMS(Int)=    0.0000002863
 Iter  64:  RMS(Cart)=    0.0000000454 RMS(Int)=    0.0000002795
 Iter  65:  RMS(Cart)=    0.0000000435 RMS(Int)=    0.0000002730
 Iter  66:  RMS(Cart)=    0.0000000423 RMS(Int)=    0.0000002666
 Iter  67:  RMS(Cart)=    0.0000000416 RMS(Int)=    0.0000002605
 Iter  68:  RMS(Cart)=    0.0000000401 RMS(Int)=    0.0000002545
 Iter  69:  RMS(Cart)=    0.0000000394 RMS(Int)=    0.0000002486
 Iter  70:  RMS(Cart)=    0.0000000380 RMS(Int)=    0.0000002429
 Iter  71:  RMS(Cart)=    0.0000000370 RMS(Int)=    0.0000002374
 Iter  72:  RMS(Cart)=    0.0000000369 RMS(Int)=    0.0000002320
 Iter  73:  RMS(Cart)=    0.0000000351 RMS(Int)=    0.0000002268
 Iter  74:  RMS(Cart)=    0.0000000351 RMS(Int)=    0.0000002217
 Iter  75:  RMS(Cart)=    0.0000000333 RMS(Int)=    0.0000002168
 Iter  76:  RMS(Cart)=    0.0000000329 RMS(Int)=    0.0000002120
 Iter  77:  RMS(Cart)=    0.0000000316 RMS(Int)=    0.0000002073
 Iter  78:  RMS(Cart)=    0.0000000308 RMS(Int)=    0.0000002028
 Iter  79:  RMS(Cart)=    0.0000000316 RMS(Int)=    0.0000001983
 Iter  80:  RMS(Cart)=    0.0000000293 RMS(Int)=    0.0000001940
 Iter  81:  RMS(Cart)=    0.0000000285 RMS(Int)=    0.0000001899
 Iter  82:  RMS(Cart)=    0.0000000288 RMS(Int)=    0.0000001857
 Iter  83:  RMS(Cart)=    0.0000000271 RMS(Int)=    0.0000001818
 Iter  84:  RMS(Cart)=    0.0000000268 RMS(Int)=    0.0000001779
 Iter  85:  RMS(Cart)=    0.0000000262 RMS(Int)=    0.0000001741
 Iter  86:  RMS(Cart)=    0.0000000251 RMS(Int)=    0.0000001705
 Iter  87:  RMS(Cart)=    0.0000000249 RMS(Int)=    0.0000001669
 Iter  88:  RMS(Cart)=    0.0000000238 RMS(Int)=    0.0000001635
 Iter  89:  RMS(Cart)=    0.0000000237 RMS(Int)=    0.0000001601
 Iter  90:  RMS(Cart)=    0.0000000227 RMS(Int)=    0.0000001568
 Iter  91:  RMS(Cart)=    0.0000000226 RMS(Int)=    0.0000001536
 Iter  92:  RMS(Cart)=    0.0000000216 RMS(Int)=    0.0000001505
 Iter  93:  RMS(Cart)=    0.0000000215 RMS(Int)=    0.0000001474
 Iter  94:  RMS(Cart)=    0.0000000205 RMS(Int)=    0.0000001444
 Iter  95:  RMS(Cart)=    0.0000000200 RMS(Int)=    0.0000001416
 Iter  96:  RMS(Cart)=    0.0000000201 RMS(Int)=    0.0000001388
 Iter  97:  RMS(Cart)=    0.0000000196 RMS(Int)=    0.0000001360
 Iter  98:  RMS(Cart)=    0.0000000191 RMS(Int)=    0.0000001333
 Iter  99:  RMS(Cart)=    0.0000000181 RMS(Int)=    0.0000001307
 RMS(Cart) too big - taking linear step, building new B-matrix and trying again
Imposing constraints:
 Iter   0:  RMS(Cart)=    0.0000218445 RMS(Int)=    0.0000086004
 Iter   1:  RMS(Cart)=    0.0000114679 RMS(Int)=    0.0000051109
 Iter   2:  RMS(Cart)=    0.0000063684 RMS(Int)=    0.0000033514
 Iter   3:  RMS(Cart)=    0.0000037579 RMS(Int)=    0.0000024160
 Iter   4:  RMS(Cart)=    0.0000023479 RMS(Int)=    0.0000018966
 Iter   5:  RMS(Cart)=    0.0000015391 RMS(Int)=    0.0000015997
 Iter   6:  RMS(Cart)=    0.0000010486 RMS(Int)=    0.0000014246
 Iter   7:  RMS(Cart)=    0.0000007387 RMS(Int)=    0.0000013161
 Iter   8:  RMS(Cart)=    0.0000005380 RMS(Int)=    0.0000012434
 Iter   9:  RMS(Cart)=    0.0000004073 RMS(Int)=    0.0000011898
 Iter  10:  RMS(Cart)=    0.0000003225 RMS(Int)=    0.0000011467
 Iter  11:  RMS(Cart)=    0.0000002683 RMS(Int)=    0.0000011093
 Iter  12:  RMS(Cart)=    0.0000002335 RMS(Int)=    0.0000010753
 Iter  13:  RMS(Cart)=    0.0000002111 RMS(Int)=    0.0000010436
 Iter  14:  RMS(Cart)=    0.0000001960 RMS(Int)=    0.0000010135
 Iter  15:  RMS(Cart)=    0.0000001850 RMS(Int)=    0.0000009846
CONVERGED
Small eigenvalue found = 5.427e-03
Small eigenvalue found = 1.006e-02
Small eigenvalue found = 1.631e-02
The first mode is                       ....   91
The number of degrees of freedom        ....   81
Storing new coordinates                 .... done

    -----------------------------------------------------------------
                    Redundant Internal Coordinates


    -----------------------------------------------------------------
         Definition                    Initial Value    Approx d2E/dq
    -----------------------------------------------------------------
      1. B(C   1,C   0)                  1.5333         0.369027   
      2. B(C   2,C   1)                  1.5471         0.350825   
      3. B(C   3,C   2)                  1.5492         0.348147   
      4. B(O   4,C   0)                  1.4668         0.422031   
      5. B(O   4,C   3)                  1.4789         0.403699   
      6. B(H   5,C   0)                  1.0919         0.357632   
      7. B(H   6,C   1)                  1.0958         0.352561   
      8. B(H   7,C   1)                  1.0951         0.353431   
      9. B(H   8,C   2)                  1.0945         0.354166   
     10. B(H   9,C   2)                  1.0966         0.351438   
     11. B(H  10,C   3)                  1.0954         0.353010   
     12. B(H  11,C   3)                  1.0939         0.354989   
     13. B(H  13,C  12)                  1.0971         0.350867   
     14. B(H  14,C  12)                  1.0975         0.350295   
     15. B(O  15,C   0)                  1.5525         0.307993   
     16. B(O  15,C  12)                  1.5529         0.307583   
     17. B(C  16,C  12)                  1.5537         0.342457   
     18. B(C  17,C  16)                  1.5333         0.369022   
     19. B(C  18,C  17)                  1.5479         0.349861   
     20. B(C  19,C  18)                  1.5479         0.349769   
     21. B(O  20,C  16)                  1.4666         0.422354   
     22. B(O  20,C  19)                  1.4797         0.402555   
     23. B(H  21,C  16)                  1.0912         0.358521   
     24. B(O  22,C  17)                  1.5528         0.307698   
     25. B(H  23,C  17)                  1.0954         0.352974   
     26. B(H  24,C  18)                  1.0946         0.354013   
     27. B(H  25,C  18)                  1.0964         0.351723   
     28. B(H  26,C  19)                  1.0953         0.353135   
     29. B(H  27,C  19)                  1.0943         0.354510   
     30. B(H  28,O  22)                  1.0953         0.316329   
     31. A(O   4,C   0,H   5)          107.0188         0.328541   
     32. A(C   1,C   0,O  15)          111.3041         0.348740   
     33. A(C   1,C   0,O   4)          104.2502         0.367935   
     34. A(O   4,C   0,O  15)          110.4727         0.354548   
     35. A(C   1,C   0,H   5)          114.4392         0.323302   
     36. A(H   5,C   0,O  15)          109.1558         0.312058   
     37. A(C   0,C   1,C   2)          101.6786         0.358729   
     38. A(C   2,C   1,H   7)          112.8327         0.320016   
     39. A(C   2,C   1,H   6)          110.6706         0.319888   
     40. A(C   0,C   1,H   6)          110.0679         0.322546   
     41. A(H   6,C   1,H   7)          108.3680         0.289027   
     42. A(C   0,C   1,H   7)          113.1246         0.322677   
     43. A(C   1,C   2,H   8)          112.8315         0.320125   
     44. A(C   1,C   2,C   3)          103.1276         0.355196   
     45. A(C   1,C   2,H   9)          110.0798         0.319721   
     46. A(C   3,C   2,H   9)          110.6149         0.319321   
     47. A(C   3,C   2,H   8)          112.4036         0.319725   
     48. A(H   8,C   2,H   9)          107.7729         0.288977   
     49. A(O   4,C   3,H  10)          109.1299         0.325449   
     50. A(C   2,C   3,H  10)          112.5253         0.319554   
     51. A(C   2,C   3,O   4)          106.5273         0.361529   
     52. A(O   4,C   3,H  11)          107.1238         0.325748   
     53. A(H  10,C   3,H  11)          108.8728         0.289284   
     54. A(C   2,C   3,H  11)          112.4567         0.319846   
     55. A(C   0,O   4,C   3)          108.3134         0.371320   
     56. A(H  14,C  12,C  16)          107.7079         0.318295   
     57. A(H  13,C  12,H  14)          108.2047         0.288406   
     58. A(H  13,C  12,O  15)          109.2738         0.311029   
     59. A(H  14,C  12,O  15)          110.4859         0.310946   
     60. A(O  15,C  12,C  16)          112.7536         0.344307   
     61. A(H  13,C  12,C  16)          108.2876         0.318379   
     62. A(C   0,O  15,C  12)          115.1523         0.336200   
     63. A(C  12,C  16,C  17)          111.3007         0.357258   
     64. A(C  12,C  16,O  20)          110.4736         0.363305   
     65. A(C  17,C  16,O  20)          104.2507         0.367983   
     66. A(C  12,C  16,H  21)          109.1725         0.319502   
     67. A(C  17,C  16,H  21)          114.4671         0.323433   
     68. A(O  20,C  16,H  21)          106.9727         0.328718   
     69. A(C  16,C  17,C  18)          101.6689         0.358560   
     70. A(C  16,C  17,O  22)          110.0465         0.348683   
     71. A(C  18,C  17,O  22)          110.6728         0.345568   
     72. A(C  16,C  17,H  23)          113.1702         0.322607   
     73. A(C  18,C  17,H  23)          112.7822         0.319805   
     74. A(O  22,C  17,H  23)          108.3985         0.311348   
     75. A(C  17,C  18,C  19)          103.1236         0.355310   
     76. A(C  17,C  18,H  24)          112.7968         0.319959   
     77. A(C  19,C  18,H  24)          112.4157         0.319945   
     78. A(C  17,C  18,H  25)          110.0842         0.319620   
     79. A(C  19,C  18,H  25)          110.6316         0.319606   
     80. A(H  24,C  18,H  25)          107.7787         0.288994   
     81. A(C  18,C  19,O  20)          106.5616         0.361641   
     82. A(C  18,C  19,H  26)          112.5368         0.319815   
     83. A(O  20,C  19,H  26)          109.1431         0.325316   
     84. A(C  18,C  19,H  27)          112.5060         0.320018   
     85. A(O  20,C  19,H  27)          107.0834         0.325524   
     86. A(H  26,C  19,H  27)          108.8043         0.289239   
     87. A(C  16,O  20,C  19)          108.2815         0.371188   
     88. A(C  17,O  22,H  28)          109.6921         0.303372   
     89. D(H   7,C   1,C   0,H   5)     82.1526         0.010890   
     90. D(C   2,C   1,C   0,O  15)     79.0878         0.010890   
     91. D(H   7,C   1,C   0,O  15)    -42.1863         0.010890   
     92. D(H   6,C   1,C   0,O   4)     77.3251         0.010890   
     93. D(H   6,C   1,C   0,O  15)   -163.5724         0.010890   
     94. D(H   6,C   1,C   0,H   5)    -39.2334         0.010890   
     95. D(H   7,C   1,C   0,O   4)   -161.2888         0.010890   
     96. D(C   2,C   1,C   0,O   4)    -40.0146         0.010890 C 
     97. D(C   2,C   1,C   0,H   5)   -156.5732         0.010890   
     98. D(H   9,C   2,C   1,H   6)    160.0777         0.009912   
     99. D(H   8,C   2,C   1,C   0)    156.5477         0.009912   
    100. D(H   8,C   2,C   1,H   6)     39.6448         0.009912   
    101. D(C   3,C   2,C   1,C   0)     35.0267         0.009912 C 
    102. D(H   8,C   2,C   1,H   7)    -81.9751         0.009912   
    103. D(H   9,C   2,C   1,C   0)    -83.0194         0.009912   
    104. D(C   3,C   2,C   1,H   6)    -81.8762         0.009912   
    105. D(H   9,C   2,C   1,H   7)     38.4577         0.009912   
    106. D(C   3,C   2,C   1,H   7)    156.5039         0.009912   
    107. D(H  11,C   3,C   2,H   9)   -143.4627         0.009774   
    108. D(O   4,C   3,C   2,H   8)   -140.0068         0.009774   
    109. D(O   4,C   3,C   2,H   9)     99.4740         0.009774   
    110. D(H  10,C   3,C   2,C   1)   -137.7432         0.009774   
    111. D(H  10,C   3,C   2,H   8)    100.4467         0.009774   
    112. D(H  10,C   3,C   2,H   9)    -20.0725         0.009774   
    113. D(H  11,C   3,C   2,C   1)     98.8666         0.009774   
    114. D(O   4,C   3,C   2,C   1)    -18.1967         0.009774 C 
    115. D(H  11,C   3,C   2,H   8)    -22.9434         0.009774   
    116. D(C   3,O   4,C   0,C   1)     29.5920         0.014035 C 
    117. D(C   3,O   4,C   0,H   5)    151.2029         0.014035   
    118. D(C   3,O   4,C   0,O  15)    -90.0740         0.014035   
    119. D(C   0,O   4,C   3,C   2)     -6.8730         0.012866 C 
    120. D(C   0,O   4,C   3,H  10)    114.8548         0.012866   
    121. D(C   0,O   4,C   3,H  11)   -127.4271         0.012866   
    122. D(C   0,O  15,C  12,C  16)     90.0000         0.007775 C 
    123. D(C  12,O  15,C   0,O   4)   -135.0000         0.007793 C 
    124. D(C  12,O  15,C   0,H   5)    -17.5859         0.007793   
    125. D(C   0,O  15,C  12,H  14)    -30.5835         0.007775   
    126. D(C   0,O  15,C  12,H  13)   -149.5271         0.007775   
    127. D(C  12,O  15,C   0,C   1)    109.6837         0.007793   
    128. D(C  17,C  16,C  12,H  13)   -176.3528         0.009483   
    129. D(H  21,C  16,C  12,H  14)    -60.4712         0.009483   
    130. D(C  17,C  16,C  12,O  15)    -55.3164         0.009483   
    131. D(O  20,C  16,C  12,H  13)    -61.0374         0.009483   
    132. D(O  20,C  16,C  12,H  14)   -177.8399         0.009483   
    133. D(O  20,C  16,C  12,O  15)     59.9990         0.009483 C 
    134. D(C  17,C  16,C  12,H  14)     66.8448         0.009483   
    135. D(H  21,C  16,C  12,H  13)     56.3313         0.009483   
    136. D(H  21,C  16,C  12,O  15)    177.3677         0.009483   
    137. D(C  18,C  17,C  16,C  12)     79.0743         0.010890   
    138. D(C  18,C  17,C  16,O  20)    -40.0278         0.010890 C 
    139. D(C  18,C  17,C  16,H  21)   -156.5451         0.010890   
    140. D(O  22,C  17,C  16,C  12)   -163.5974         0.010890   
    141. D(O  22,C  17,C  16,O  20)     77.3005         0.010890   
    142. D(O  22,C  17,C  16,H  21)    -39.2169         0.010890   
    143. D(H  23,C  17,C  16,C  12)    -42.1561         0.010890   
    144. D(H  23,C  17,C  16,O  20)   -161.2582         0.010890   
    145. D(H  23,C  17,C  16,H  21)     82.2245         0.010890   
    146. D(H  24,C  18,C  17,H  23)    -81.9567         0.009862   
    147. D(C  19,C  18,C  17,O  22)    -81.8458         0.009862   
    148. D(C  19,C  18,C  17,H  23)    156.5286         0.009862   
    149. D(H  24,C  18,C  17,C  16)    156.5430         0.009862   
    150. D(C  19,C  18,C  17,C  16)     35.0283         0.009862 C 
    151. D(H  24,C  18,C  17,O  22)     39.6689         0.009862   
    152. D(H  25,C  18,C  17,C  16)    -83.0370         0.009862   
    153. D(H  25,C  18,C  17,O  22)    160.0889         0.009862   
    154. D(H  25,C  18,C  17,H  23)     38.4633         0.009862   
    155. D(H  27,C  19,C  18,H  25)   -143.4397         0.009858   
    156. D(O  20,C  19,C  18,H  24)   -139.9555         0.009858   
    157. D(O  20,C  19,C  18,H  25)     99.4979         0.009858   
    158. D(H  26,C  19,C  18,C  17)   -137.7749         0.009858   
    159. D(H  26,C  19,C  18,H  24)    100.4530         0.009858   
    160. D(H  26,C  19,C  18,H  25)    -20.0936         0.009858   
    161. D(H  27,C  19,C  18,C  17)     98.8790         0.009858   
    162. D(O  20,C  19,C  18,C  17)    -18.1834         0.009858 C 
    163. D(H  27,C  19,C  18,H  24)    -22.8931         0.009858   
    164. D(C  19,O  20,C  16,C  12)    -90.0464         0.014056   
    165. D(C  19,O  20,C  16,C  17)     29.6162         0.014056 C 
    166. D(C  19,O  20,C  16,H  21)    151.2372         0.014056   
    167. D(C  16,O  20,C  19,C  18)     -6.8915         0.012795 C 
    168. D(C  16,O  20,C  19,H  26)    114.8778         0.012795   
    169. D(C  16,O  20,C  19,H  27)   -127.5003         0.012795   
    170. D(H  28,O  22,C  17,C  16)    -55.8685         0.007780   
    171. D(H  28,O  22,C  17,C  18)     55.7115         0.007780   
    172. D(H  28,O  22,C  17,H  23)    179.8836         0.007780   
    -----------------------------------------------------------------

Number of atoms                         .... 29
Number of degrees of freedom            .... 172

         *************************************************************
         *                GEOMETRY OPTIMIZATION CYCLE   1            *
         *************************************************************
---------------------------------
CARTESIAN COORDINATES (ANGSTROEM)
---------------------------------
  C    -21.048062   26.221987   46.251004
  C    -20.360988   27.557945   45.944001
  C    -20.328984   28.221952   47.340997
  C    -20.110070   27.021949   48.296015
  O    -20.473117   25.806958   47.535019
  H    -20.833089   25.427960   45.533026
  H    -19.343989   27.381889   45.576025
  H    -20.897939   28.156965   45.200981
  H    -19.542947   28.977911   47.434008
  H    -21.288964   28.710003   47.547971
  H    -20.733088   27.081991   49.195000
  H    -19.064082   26.912896   48.597041
  C    -23.415061   25.773020   45.217989
  H    -24.332059   26.358022   45.074982
  H    -22.844072   25.795990   44.280982
  O    -22.586057   26.394053   46.374969
  C    -23.816006   24.297008   45.491004
  C    -22.585968   23.432056   45.790990
  C    -22.303953   23.791076   47.269983
  C    -23.720950   23.997026   47.858006
  O    -24.628977   24.202984   46.708022
  H    -24.433004   23.934978   44.667016
  O    -22.945915   21.928041   45.651007
  H    -21.736987   23.647083   45.132974
  H    -21.742915   23.012100   47.795978
  H    -21.722986   24.719098   47.327966
  H    -23.777971   24.867028   48.521002
  H    -24.081907   23.117016   48.399019
  H    -23.792894   21.689014   46.303023

----------------------------
CARTESIAN COORDINATES (A.U.)
----------------------------
  NO LB      ZA    FRAG     MASS         X           Y           Z
   0 C     6.0000    0    12.011  -39.775073   49.552375   87.401732
   1 C     6.0000    0    12.011  -38.476691   52.076969   86.821578
   2 C     6.0000    0    12.011  -38.416213   53.331760   89.461519
   3 C     6.0000    0    12.011  -38.002524   51.064082   91.266242
   4 O     8.0000    0    15.999  -38.688584   48.768083   89.828168
   5 H     1.0000    0     1.008  -39.368833   48.051881   86.044950
   6 H     1.0000    0     1.008  -36.554841   51.744270   86.126206
   7 H     1.0000    0     1.008  -39.491382   53.208952   85.417476
   8 H     1.0000    0     1.008  -36.930817   54.760316   89.637284
   9 H     1.0000    0     1.008  -40.230311   54.254044   89.852643
  10 H     1.0000    0     1.008  -39.179857   51.177547   92.965077
  11 H     1.0000    0     1.008  -36.025895   50.858003   91.835099
  12 C     6.0000    0    12.011  -44.248053   48.703950   85.449615
  13 H     1.0000    0     1.008  -45.980928   49.809443   85.179372
  14 H     1.0000    0     1.008  -43.169039   48.747356   83.678928
  15 O     8.0000    0    15.999  -42.681463   49.877531   87.635990
  16 C     6.0000    0    12.011  -45.005729   45.914691   85.965539
  17 C     6.0000    0    12.011  -42.681294   44.280168   86.532431
  18 C     6.0000    0    12.011  -42.148363   44.958618   89.327322
  19 C     6.0000    0    12.011  -44.826098   45.347808   90.438526
  20 O     8.0000    0    15.999  -46.542022   45.737012   88.265369
  21 H     1.0000    0     1.008  -46.171687   45.230554   84.408428
  22 O     8.0000    0    15.999  -43.361494   41.437993   86.267901
  23 H     1.0000    0     1.008  -41.076953   44.686511   85.288961
  24 H     1.0000    0     1.008  -41.088154   43.486567   90.321308
  25 H     1.0000    0     1.008  -41.050495   46.712325   89.436894
  26 H     1.0000    0     1.008  -44.933853   46.991873   91.691405
  27 H     1.0000    0     1.008  -45.508209   43.684829   91.460890
  28 H     1.0000    0     1.008  -44.962054   40.986297   87.500033

--------------------------------
INTERNAL COORDINATES (ANGSTROEM)
--------------------------------
 C      0   0   0     0.000000000000     0.00000000     0.00000000
 C      1   0   0     1.533334275362     0.00000000     0.00000000
 C      2   1   0     1.547103422529   101.67907390     0.00000000
 C      3   2   1     1.549188819996   103.12737509    35.02687180
 O      1   2   3     1.466801281701   104.24948604   319.98542309
 H      1   2   3     1.091872245274   114.43876658   203.42640133
 H      2   1   3     1.095759553917   110.06782188   117.34000099
 H      2   1   3     1.095088580892   113.12442239   238.72597460
 H      3   2   1     1.094523183857   112.83161078   156.54780790
 H      3   2   1     1.096628013503   110.07982737   276.98070077
 H      4   3   2     1.095413164062   112.52534669   222.25678475
 H      4   3   2     1.093891219455   112.45670684    98.86663270
 C      1   2   3     2.621331531875   118.35380517   114.09934485
 H     13   1   2     1.097070189186   135.62630119   317.76609337
 H     13   1   2     1.097514920172    82.12931694    65.80609778
 O      1   2   3     1.552547583812   111.30349807    79.08752829
 C     13   1   2     1.553674998190   109.05865501   171.89608214
 C     17  13   1     1.533337862312   111.30086304   339.23899979
 C     18  17  13     1.547852060114   101.66878226    79.07441110
 C     19  18  17     1.547924093746   103.12369675    35.02828820
 O     17  13   1     1.466592649647   110.47349389    94.55473254
 H     17  13   1     1.091196132691   109.17238536   211.92294004
 O     18  17  13     1.552809067465   110.04652588   196.40261550
 H     18  17  13     1.095440550646   113.17025668   317.84396987
 H     19  18  17     1.094640580282   112.79674234   156.54294737
 H     19  18  17     1.096407314824   110.08415607   276.96293018
 H     20  19  18     1.095316392646   112.53680253   222.22506013
 H     20  19  18     1.094258653153   112.50602581    98.87903272
 H     23  18  17     1.095278046890   109.69207967   304.13157850

---------------------------
INTERNAL COORDINATES (A.U.)
---------------------------
 C      0   0   0     0.000000000000     0.00000000     0.00000000
 C      1   0   0     2.897581852189     0.00000000     0.00000000
 C      2   1   0     2.923601769431   101.67907390     0.00000000
 C      3   2   1     2.927542599525   103.12737509    35.02687180
 O      1   2   3     2.771852715300   104.24948604   319.98542309
 H      1   2   3     2.063339516798   114.43876658   203.42640133
 H      2   1   3     2.070685465531   110.06782188   117.34000099
 H      2   1   3     2.069417510270   113.12442239   238.72597460
 H      3   2   1     2.068349064717   112.83161078   156.54780790
 H      3   2   1     2.072326616307   110.07982737   276.98070077
 H      4   3   2     2.070030883569   112.52534669   222.25678475
 H      4   3   2     2.067154825070   112.45670684    98.86663270
 C      1   2   3     4.953598701455   118.35380517   114.09934485
 H     13   1   2     2.073162207250   135.62630119   317.76609337
 H     13   1   2     2.074002627017    82.12931694    65.80609778
 O      1   2   3     2.933889743286   111.30349807    79.08752829
 C     13   1   2     2.936020247699   109.05865501   171.89608214
 C     17  13   1     2.897588630542   111.30086304   339.23899979
 C     18  17  13     2.925016489442   101.66878226    79.07441110
 C     19  18  17     2.925152613279   103.12369675    35.02828820
 O     17  13   1     2.771458457856   110.47349389    94.55473254
 H     17  13   1     2.062061849180   109.17238536   211.92294004
 O     18  17  13     2.934383875778   110.04652588   196.40261550
 H     18  17  13     2.070082636713   113.17025668   317.84396987
 H     19  18  17     2.068570911810   112.79674234   156.54294737
 H     19  18  17     2.071909556246   110.08415607   276.96293018
 H     20  19  18     2.069848012096   112.53680253   222.22506013
 H     20  19  18     2.067849174133   112.50602581    98.87903272
 H     23  18  17     2.069775549119   109.69207967   304.13157850

---------------------
BASIS SET INFORMATION
---------------------
There are 3 groups of distinct atoms

 Group   1 Type C   : 10s4p contracted to 3s2p pattern {631/31}
 Group   2 Type O   : 10s4p contracted to 3s2p pattern {631/31}
 Group   3 Type H   : 4s contracted to 2s pattern {31}

Atom   0C    basis set group =>   1
Atom   1C    basis set group =>   1
Atom   2C    basis set group =>   1
Atom   3C    basis set group =>   1
Atom   4O    basis set group =>   2
Atom   5H    basis set group =>   3
Atom   6H    basis set group =>   3
Atom   7H    basis set group =>   3
Atom   8H    basis set group =>   3
Atom   9H    basis set group =>   3
Atom  10H    basis set group =>   3
Atom  11H    basis set group =>   3
Atom  12C    basis set group =>   1
Atom  13H    basis set group =>   3
Atom  14H    basis set group =>   3
Atom  15O    basis set group =>   2
Atom  16C    basis set group =>   1
Atom  17C    basis set group =>   1
Atom  18C    basis set group =>   1
Atom  19C    basis set group =>   1
Atom  20O    basis set group =>   2
Atom  21H    basis set group =>   3
Atom  22O    basis set group =>   2
Atom  23H    basis set group =>   3
Atom  24H    basis set group =>   3
Atom  25H    basis set group =>   3
Atom  26H    basis set group =>   3
Atom  27H    basis set group =>   3
Atom  28H    basis set group =>   3
------------------------------------------------------------------------------
                           ORCA GTO INTEGRAL CALCULATION
------------------------------------------------------------------------------

                         BASIS SET STATISTICS AND STARTUP INFO

 # of primitive gaussian shells          ...  246
 # of primitive gaussian functions       ...  350
 # of contracted shells                  ...   97
 # of contracted basis functions         ...  149
 Highest angular momentum                ...    1
 Maximum contraction depth               ...    6
 Integral package used                   ... LIBINT
 Integral threshhold            Thresh   ...  2.500e-11
 Primitive cut-off              TCut     ...  2.500e-12


------------------------------ INTEGRAL EVALUATION ----------------------------


 * One electron integrals 
 Pre-screening matrix                    ... done
 Shell pair data                         ... done (   0.002 sec)

-------------------------------------------------------------------------------
                                 ORCA SCF
-------------------------------------------------------------------------------

------------
SCF SETTINGS
------------
Hamiltonian:
 Density Functional     Method          .... DFT(GTOs)
 Exchange Functional    Exchange        .... B88
   X-Alpha parameter    XAlpha          ....  0.666667
   Becke's b parameter  XBeta           ....  0.004200
 Correlation Functional Correlation     .... LYP
 LDA part of GGA corr.  LDAOpt          .... VWN-5
 Gradients option       PostSCFGGA      .... off
 Hybrid DFT is turned on
   Fraction HF Exchange ScalHFX         ....  0.200000
   Scaling of DF-GGA-X  ScalDFX         ....  0.720000
   Scaling of DF-GGA-C  ScalDFC         ....  0.810000
   Scaling of DF-LDA-C  ScalLDAC        ....  1.000000
   Perturbative correction              ....  0.000000
   Density functional embedding theory  .... OFF
   NL short-range parameter             ....  4.800000


General Settings:
 Integral files         IntName         .... project_8048/ensemble_225_90
 Hartree-Fock type      HFTyp           .... RHF
 Total Charge           Charge          ....    0
 Multiplicity           Mult            ....    1
 Number of Electrons    NEL             ....  102
 Basis Dimension        Dim             ....  149
 Nuclear Repulsion      ENuc            ....    903.0983261081 Eh

Convergence Acceleration:
 DIIS                   CNVDIIS         .... on
   Start iteration      DIISMaxIt       ....    12
   Startup error        DIISStart       ....  0.200000
   # of expansion vecs  DIISMaxEq       ....     5
   Bias factor          DIISBfac        ....   1.050
   Max. coefficient     DIISMaxC        ....  10.000
 Newton-Raphson         CNVNR           .... off
 SOSCF                  CNVSOSCF        .... on
   Start iteration      SOSCFMaxIt      ....   150
   Startup grad/error   SOSCFStart      ....  0.003300
 Level Shifting         CNVShift        .... on
   Level shift para.    LevelShift      ....    0.2500
   Turn off err/grad.   ShiftErr        ....    0.0010
 Zerner damping         CNVZerner       .... off
 Static damping         CNVDamp         .... on
   Fraction old density DampFac         ....    0.7000
   Max. Damping (<1)    DampMax         ....    0.9800
   Min. Damping (>=0)   DampMin         ....    0.0000
   Turn off err/grad.   DampErr         ....    0.1000
 Fernandez-Rico         CNVRico         .... off

SCF Procedure:
 Maximum # iterations   MaxIter         ....   125
 SCF integral mode      SCFMode         .... Direct
   Integral package                     .... LIBINT
 Reset frequency        DirectResetFreq ....    20
 Integral Threshold     Thresh          ....  2.500e-11 Eh
 Primitive CutOff       TCut            ....  2.500e-12 Eh

Convergence Tolerance:
 Convergence Check Mode ConvCheckMode   .... Total+1el-Energy
 Convergence forced     ConvForced      .... 0
 Energy Change          TolE            ....  1.000e-08 Eh
 1-El. energy change                    ....  1.000e-05 Eh
 Orbital Gradient       TolG            ....  1.000e-05
 Orbital Rotation angle TolX            ....  1.000e-05
 DIIS Error             TolErr          ....  5.000e-07


Diagonalization of the overlap matrix:
Smallest eigenvalue                        ... 4.128e-03
Time for diagonalization                   ...    0.292 sec
Threshold for overlap eigenvalues          ... 1.000e-08
Number of eigenvalues below threshold      ... 0
Time for construction of square roots      ...    0.180 sec
Total time needed                          ...    0.472 sec

-------------------
DFT GRID GENERATION
-------------------

General Integration Accuracy     IntAcc      ...  4.340
Radial Grid Type                 RadialGrid  ... Gauss-Chebyshev
Angular Grid (max. acc.)         AngularGrid ... Lebedev-110
Angular grid pruning method      GridPruning ... 3 (G Style)
Weight generation scheme         WeightScheme... Becke
Basis function cutoff            BFCut       ...    1.0000e-11
Integration weight cutoff        WCut        ...    1.0000e-14
Grids for H and He will be reduced by one unit

# of grid points (after initial pruning)     ...  34472 (   0.0 sec)
# of grid points (after weights+screening)   ...  30853 (   0.3 sec)
nearest neighbour list constructed           ...    0.0 sec
Grid point re-assignment to atoms done       ...    0.0 sec
Grid point division into batches done        ...    0.0 sec
Reduced shell lists constructed in    0.3 sec

Total number of grid points                  ...    30853
Total number of batches                      ...      496
Average number of points per batch           ...       62
Average number of grid points per atom       ...     1064
Average number of shells per batch           ...    62.23 (64.15%)
Average number of basis functions per batch  ...   100.95 (67.75%)
Average number of large shells per batch     ...    44.41 (71.37%)
Average number of large basis fcns per batch ...    73.68 (72.99%)
Maximum spatial batch extension              ...  21.52, 18.86, 19.79 au
Average spatial batch extension              ...   3.39,  3.35,  3.37 au

Time for grid setup =    0.842 sec

------------------------------
INITIAL GUESS: MODEL POTENTIAL
------------------------------
Loading Hartree-Fock densities                     ... done
Calculating cut-offs                               ... done
Setting up the integral package                    ... done
Initializing the effective Hamiltonian             ... done
Starting the Coulomb interaction                   ... done (   0.3 sec)
Reading the grid                                   ... done
Mapping shells                                     ... done
Starting the XC term evaluation                    ... done (   0.3 sec)
  promolecular density results
     # of electrons  =    101.998462679
     EX              =    -83.695119615
     EC              =     -3.468055425
     EX+EC           =    -87.163175040
Transforming the Hamiltonian                       ... done (   0.0 sec)
Diagonalizing the Hamiltonian                      ... done (   0.0 sec)
Back transforming the eigenvectors                 ... done (   0.0 sec)
Now organizing SCF variables                       ... done
                      ------------------
                      INITIAL GUESS DONE (   1.7 sec)
                      ------------------
--------------
SCF ITERATIONS
--------------
ITER       Energy         Delta-E        Max-DP      RMS-DP      [F,P]     Damp
               ***  Starting incremental Fock matrix formation  ***
  0   -652.5150856729   0.000000000000 0.07638704  0.00305786  0.2424112 0.7000
  1   -652.6556423041  -0.140556631191 0.04318347  0.00209991  0.0961648 0.7000
                               ***Turning on DIIS***
  2   -652.7086451117  -0.053002807558 0.06096882  0.00338756  0.0296011 0.0000
  3   -652.7958043554  -0.087159243714 0.03073636  0.00140824  0.0527914 0.0000
  4   -652.8134005987  -0.017596243295 0.00997258  0.00043873  0.0123848 0.0000
  5   -652.8143997771  -0.000999178451 0.00321880  0.00013458  0.0047612 0.0000
                      *** Initiating the SOSCF procedure ***
                           *** Shutting down DIIS ***
                      *** Re-Reading the Fockian *** 
                      *** Removing any level shift *** 
ITER      Energy       Delta-E        Grad      Rot      Max-DP    RMS-DP
  6   -652.81447751  -0.0000777322  0.000183  0.000183  0.001228  0.000059
               *** Restarting incremental Fock matrix formation ***
  7   -652.81448025  -0.0000027405  0.000146  0.000232  0.000895  0.000036
  8   -652.81447776   0.0000024874  0.000245  0.000186  0.000599  0.000023
  9   -652.81448169  -0.0000039258  0.000024  0.000051  0.000201  0.000007
 10   -652.81448162   0.0000000657  0.000034  0.000031  0.000126  0.000004
 11   -652.81448175  -0.0000001290  0.000005  0.000010  0.000030  0.000001
 12   -652.81448175   0.0000000036  0.000008  0.000006  0.000019  0.000001
                  ***Gradient check signals convergence***
              ***Rediagonalizing the Fockian in SOSCF/NRSCF***

               *****************************************************
               *                     SUCCESS                       *
               *           SCF CONVERGED AFTER  13 CYCLES          *
               *****************************************************

Setting up the final grid:

General Integration Accuracy     IntAcc      ...  4.670
Radial Grid Type                 RadialGrid  ... Gauss-Chebyshev
Angular Grid (max. acc.)         AngularGrid ... Lebedev-302
Angular grid pruning method      GridPruning ... 3 (G Style)
Weight generation scheme         WeightScheme... Becke
Basis function cutoff            BFCut       ...    1.0000e-11
Integration weight cutoff        WCut        ...    1.0000e-14
Grids for H and He will be reduced by one unit

# of grid points (after initial pruning)     ... 135060 (   0.1 sec)
# of grid points (after weights+screening)   ... 118217 (   1.0 sec)
nearest neighbour list constructed           ...    0.0 sec
Grid point re-assignment to atoms done       ...    0.0 sec
Grid point division into batches done        ...    0.4 sec
Reduced shell lists constructed in    1.4 sec

Total number of grid points                  ...   118217
Total number of batches                      ...     1863
Average number of points per batch           ...       63
Average number of grid points per atom       ...     4076
Average number of shells per batch           ...    57.13 (58.89%)
Average number of basis functions per batch  ...    92.99 (62.41%)
Average number of large shells per batch     ...    39.74 (69.57%)
Average number of large basis fcns per batch ...    66.12 (71.10%)
Maximum spatial batch extension              ...  19.11, 18.24, 18.24 au
Average spatial batch extension              ...   2.17,  2.18,  2.20 au

Final grid set up in    4.2 sec
Final integration                            ... done (   3.6 sec)
Change in XC energy                          ...     0.000863751
Integrated number of electrons               ...   102.000081493
Previous integrated no of electrons          ...   102.005783953

----------------
TOTAL SCF ENERGY
----------------

Total Energy       :         -652.81361800 Eh          -17763.96165 eV

Components:
Nuclear Repulsion  :          903.09832611 Eh           24574.55480 eV
Electronic Energy  :        -1555.91194411 Eh          -42338.51645 eV
One Electron Energy:        -2684.11951527 Eh          -73038.60522 eV
Two Electron Energy:         1128.20757117 Eh           30700.08877 eV

Virial components:
Potential Energy   :        -1301.90175592 Eh          -35426.54783 eV
Kinetic Energy     :          649.08813792 Eh           17662.58618 eV
Virial Ratio       :            2.00573956


DFT components:
N(Alpha)           :       51.000040746513 electrons
N(Beta)            :       51.000040746513 electrons
N(Total)           :      102.000081493027 electrons
E(X)               :      -67.616476512622 Eh       
E(C)               :       -4.077543912431 Eh       
E(XC)              :      -71.694020425053 Eh       
DFET-embed. en.    :        0.000000000000 Eh       

---------------
SCF CONVERGENCE
---------------

  Last Energy change         ...   -3.6348e-09  Tolerance :   1.0000e-08
  Last MAX-Density change    ...    3.0476e-06  Tolerance :   1.0000e-07
  Last RMS-Density change    ...    9.4998e-08  Tolerance :   5.0000e-09
  Last Orbital Gradient      ...    3.2360e-07  Tolerance :   1.0000e-05
  Last Orbital Rotation      ...    5.7526e-07  Tolerance :   1.0000e-05

             **** THE GBW FILE WAS UPDATED (project_8048/ensemble_225_90.gbw) ****
             **** DENSITY FILE WAS UPDATED (project_8048/ensemble_225_90.scfp) ****
             **** ENERGY FILE WAS UPDATED (project_8048/ensemble_225_90.en.tmp) ****
             **** THE GBW FILE WAS UPDATED (project_8048/ensemble_225_90.gbw) ****
             **** DENSITY FILE WAS UPDATED (project_8048/ensemble_225_90.scfp) ****
----------------
ORBITAL ENERGIES
----------------

  NO   OCC          E(Eh)            E(eV) 
   0   2.0000     -19.168706      -521.6070 
   1   2.0000     -19.154167      -521.2114 
   2   2.0000     -19.129746      -520.5468 
   3   2.0000     -19.128440      -520.5113 
   4   2.0000     -10.298877      -280.2467 
   5   2.0000     -10.239641      -278.6348 
   6   2.0000     -10.239401      -278.6283 
   7   2.0000     -10.232385      -278.4373 
   8   2.0000     -10.231737      -278.4197 
   9   2.0000     -10.209098      -277.8037 
  10   2.0000     -10.201561      -277.5986 
  11   2.0000     -10.197627      -277.4915 
  12   2.0000     -10.149222      -276.1744 
  13   2.0000      -1.056605       -28.7517 
  14   2.0000      -1.015184       -27.6246 
  15   2.0000      -0.974753       -26.5244 
  16   2.0000      -0.949200       -25.8290 
  17   2.0000      -0.800389       -21.7797 
  18   2.0000      -0.769120       -20.9288 
  19   2.0000      -0.756454       -20.5842 
  20   2.0000      -0.738526       -20.0963 
  21   2.0000      -0.667514       -18.1640 
  22   2.0000      -0.614198       -16.7132 
  23   2.0000      -0.602467       -16.3940 
  24   2.0000      -0.578916       -15.7531 
  25   2.0000      -0.572021       -15.5655 
  26   2.0000      -0.520488       -14.1632 
  27   2.0000      -0.508784       -13.8447 
  28   2.0000      -0.492349       -13.3975 
  29   2.0000      -0.481127       -13.0921 
  30   2.0000      -0.466234       -12.6869 
  31   2.0000      -0.454875       -12.3778 
  32   2.0000      -0.440452       -11.9853 
  33   2.0000      -0.426410       -11.6032 
  34   2.0000      -0.416374       -11.3301 
  35   2.0000      -0.410402       -11.1676 
  36   2.0000      -0.398935       -10.8556 
  37   2.0000      -0.384755       -10.4697 
  38   2.0000      -0.373010       -10.1501 
  39   2.0000      -0.366598        -9.9756 
  40   2.0000      -0.365327        -9.9410 
  41   2.0000      -0.355724        -9.6797 
  42   2.0000      -0.344616        -9.3775 
  43   2.0000      -0.333156        -9.0656 
  44   2.0000      -0.313404        -8.5282 
  45   2.0000      -0.308056        -8.3826 
  46   2.0000      -0.294916        -8.0251 
  47   2.0000      -0.272560        -7.4167 
  48   2.0000      -0.261500        -7.1158 
  49   2.0000      -0.248125        -6.7518 
  50   2.0000      -0.229525        -6.2457 
  51   0.0000       0.048841         1.3290 
  52   0.0000       0.052585         1.4309 
  53   0.0000       0.083517         2.2726 
  54   0.0000       0.086937         2.3657 
  55   0.0000       0.102216         2.7815 
  56   0.0000       0.109095         2.9686 
  57   0.0000       0.110733         3.0132 
  58   0.0000       0.118338         3.2201 
  59   0.0000       0.130836         3.5602 
  60   0.0000       0.136135         3.7044 
  61   0.0000       0.142421         3.8755 
  62   0.0000       0.147842         4.0230 
  63   0.0000       0.152898         4.1606 
  64   0.0000       0.159109         4.3296 
  65   0.0000       0.167346         4.5537 
  66   0.0000       0.169717         4.6182 
  67   0.0000       0.186465         5.0740 
  68   0.0000       0.188612         5.1324 
  69   0.0000       0.205430         5.5900 
  70   0.0000       0.209784         5.7085 
  71   0.0000       0.214008         5.8235 
  72   0.0000       0.221827         6.0362 
  73   0.0000       0.238971         6.5027 
  74   0.0000       0.249596         6.7919 
  75   0.0000       0.254288         6.9195 
  76   0.0000       0.260576         7.0906 
  77   0.0000       0.271470         7.3871 
  78   0.0000       0.303105         8.2479 
  79   0.0000       0.316502         8.6125 
  80   0.0000       0.369406        10.0520 
  81   0.0000       0.517380        14.0786 
  82   0.0000       0.527020        14.3409 
  83   0.0000       0.537530        14.6269 
  84   0.0000       0.541078        14.7235 
  85   0.0000       0.560484        15.2516 
  86   0.0000       0.563186        15.3251 
  87   0.0000       0.578449        15.7404 
  88   0.0000       0.592883        16.1332 
  89   0.0000       0.595495        16.2042 
  90   0.0000       0.605392        16.4736 
  91   0.0000       0.609374        16.5819 
  92   0.0000       0.618532        16.8311 
  93   0.0000       0.630417        17.1545 
  94   0.0000       0.641857        17.4658 
  95   0.0000       0.652373        17.7520 
  96   0.0000       0.663643        18.0586 
  97   0.0000       0.674299        18.3486 
  98   0.0000       0.691400        18.8140 
  99   0.0000       0.720758        19.6128 
 100   0.0000       0.749546        20.3962 
 101   0.0000       0.775896        21.1132 
 102   0.0000       0.791525        21.5385 
 103   0.0000       0.812531        22.1101 
 104   0.0000       0.812904        22.1202 
 105   0.0000       0.831339        22.6219 
 106   0.0000       0.840257        22.8645 
 107   0.0000       0.855588        23.2817 
 108   0.0000       0.867543        23.6071 
 109   0.0000       0.873104        23.7584 
 110   0.0000       0.890989        24.2450 
 111   0.0000       0.894798        24.3487 
 112   0.0000       0.912316        24.8254 
 113   0.0000       0.923362        25.1260 
 114   0.0000       0.924849        25.1664 
 115   0.0000       0.929457        25.2918 
 116   0.0000       0.941439        25.6179 
 117   0.0000       0.951554        25.8931 
 118   0.0000       0.963387        26.2151 
 119   0.0000       0.973675        26.4951 
 120   0.0000       0.982524        26.7358 
 121   0.0000       1.001368        27.2486 
 122   0.0000       1.024620        27.8813 
 123   0.0000       1.045104        28.4387 
 124   0.0000       1.056960        28.7613 
 125   0.0000       1.088036        29.6070 
 126   0.0000       1.105945        30.0943 
 127   0.0000       1.124918        30.6106 
 128   0.0000       1.146795        31.2059 
 129   0.0000       1.164506        31.6878 
 130   0.0000       1.214300        33.0428 
 131   0.0000       1.263701        34.3870 
 132   0.0000       1.290396        35.1135 
 133   0.0000       1.321448        35.9584 
 134   0.0000       1.351468        36.7753 
 135   0.0000       1.392854        37.9015 
 136   0.0000       1.406197        38.2646 
 137   0.0000       1.456614        39.6365 
 138   0.0000       1.461605        39.7723 
 139   0.0000       1.517313        41.2882 
 140   0.0000       1.571612        42.7657 
 141   0.0000       1.619271        44.0626 
 142   0.0000       1.655967        45.0612 
 143   0.0000       1.716153        46.6989 
 144   0.0000       1.797670        48.9171 
 145   0.0000       1.924839        52.3775 
 146   0.0000       1.973514        53.7021 
 147   0.0000       2.105709        57.2993 
 148   0.0000       2.193804        59.6964 

                    ********************************
                    * MULLIKEN POPULATION ANALYSIS *
                    ********************************

-----------------------
MULLIKEN ATOMIC CHARGES
-----------------------
   0 C :    0.240912
   1 C :   -0.266475
   2 C :   -0.303424
   3 C :    0.000077
   4 O :   -0.518391
   5 H :    0.165865
   6 H :    0.152125
   7 H :    0.159495
   8 H :    0.147457
   9 H :    0.170616
  10 H :    0.157718
  11 H :    0.150116
  12 C :   -0.039842
  13 H :    0.169781
  14 H :    0.125325
  15 O :   -0.505618
  16 C :    0.083017
  17 C :    0.064554
  18 C :   -0.330101
  19 C :   -0.012855
  20 O :   -0.524580
  21 H :    0.155813
  22 O :   -0.607809
  23 H :    0.133551
  24 H :    0.135701
  25 H :    0.277288
  26 H :    0.146753
  27 H :    0.124441
  28 H :    0.348492
Sum of atomic charges:   -0.0000000

--------------------------------
MULLIKEN REDUCED ORBITAL CHARGES
--------------------------------
  0 C s       :     3.235696  s :     3.235696
      pz      :     0.783980  p :     2.523392
      px      :     0.703225
      py      :     1.036187
  1 C s       :     3.310223  s :     3.310223
      pz      :     0.988251  p :     2.956252
      px      :     1.029737
      py      :     0.938265
  2 C s       :     3.318128  s :     3.318128
      pz      :     0.901838  p :     2.985296
      px      :     1.093936
      py      :     0.989522
  3 C s       :     3.262787  s :     3.262787
      pz      :     0.939716  p :     2.737136
      px      :     1.060342
      py      :     0.737078
  4 O s       :     3.947542  s :     3.947542
      pz      :     1.322859  p :     4.570849
      px      :     1.731365
      py      :     1.516625
  5 H s       :     0.834135  s :     0.834135
  6 H s       :     0.847875  s :     0.847875
  7 H s       :     0.840505  s :     0.840505
  8 H s       :     0.852543  s :     0.852543
  9 H s       :     0.829384  s :     0.829384
 10 H s       :     0.842282  s :     0.842282
 11 H s       :     0.849884  s :     0.849884
 12 C s       :     3.296047  s :     3.296047
      pz      :     0.817609  p :     2.743795
      px      :     0.970679
      py      :     0.955507
 13 H s       :     0.830219  s :     0.830219
 14 H s       :     0.874675  s :     0.874675
 15 O s       :     3.947206  s :     3.947206
      pz      :     1.547486  p :     4.558411
      px      :     1.223057
      py      :     1.787868
 16 C s       :     3.260643  s :     3.260643
      pz      :     0.835534  p :     2.656340
      px      :     0.890663
      py      :     0.930143
 17 C s       :     3.305413  s :     3.305413
      pz      :     0.993311  p :     2.630033
      px      :     0.962364
      py      :     0.674358
 18 C s       :     3.335411  s :     3.335411
      pz      :     0.882807  p :     2.994690
      px      :     0.970906
      py      :     1.140977
 19 C s       :     3.263933  s :     3.263933
      pz      :     0.828081  p :     2.748922
      px      :     0.849042
      py      :     1.071800
 20 O s       :     3.943592  s :     3.943592
      pz      :     1.162565  p :     4.580989
      px      :     1.552582
      py      :     1.865842
 21 H s       :     0.844187  s :     0.844187
 22 O s       :     3.949593  s :     3.949593
      pz      :     1.723830  p :     4.658217
      px      :     1.563504
      py      :     1.370883
 23 H s       :     0.866449  s :     0.866449
 24 H s       :     0.864299  s :     0.864299
 25 H s       :     0.722712  s :     0.722712
 26 H s       :     0.853247  s :     0.853247
 27 H s       :     0.875559  s :     0.875559
 28 H s       :     0.651508  s :     0.651508


                     *******************************
                     * LOEWDIN POPULATION ANALYSIS *
                     *******************************

----------------------
LOEWDIN ATOMIC CHARGES
----------------------
   0 C :    0.170942
   1 C :   -0.215634
   2 C :   -0.215524
   3 C :   -0.026502
   4 O :   -0.304584
   5 H :    0.106925
   6 H :    0.117631
   7 H :    0.125456
   8 H :    0.116834
   9 H :    0.123100
  10 H :    0.111092
  11 H :    0.106426
  12 C :   -0.041631
  13 H :    0.125621
  14 H :    0.096468
  15 O :   -0.358929
  16 C :    0.014295
  17 C :    0.037079
  18 C :   -0.265086
  19 C :   -0.030467
  20 O :   -0.331186
  21 H :    0.120280
  22 O :   -0.451019
  23 H :    0.106763
  24 H :    0.114293
  25 H :    0.167901
  26 H :    0.105015
  27 H :    0.088894
  28 H :    0.285548

-------------------------------
LOEWDIN REDUCED ORBITAL CHARGES
-------------------------------
  0 C s       :     2.981145  s :     2.981145
      pz      :     0.911142  p :     2.847912
      px      :     0.840977
      py      :     1.095794
  1 C s       :     2.975338  s :     2.975338
      pz      :     1.078938  p :     3.240296
      px      :     1.107171
      py      :     1.054187
  2 C s       :     2.972879  s :     2.972879
      pz      :     1.027564  p :     3.242645
      px      :     1.136705
      py      :     1.078375
  3 C s       :     2.983855  s :     2.983855
      pz      :     1.039367  p :     3.042648
      px      :     1.121704
      py      :     0.881577
  4 O s       :     3.604711  s :     3.604711
      pz      :     1.385630  p :     4.699873
      px      :     1.756956
      py      :     1.557287
  5 H s       :     0.893075  s :     0.893075
  6 H s       :     0.882369  s :     0.882369
  7 H s       :     0.874544  s :     0.874544
  8 H s       :     0.883166  s :     0.883166
  9 H s       :     0.876900  s :     0.876900
 10 H s       :     0.888908  s :     0.888908
 11 H s       :     0.893574  s :     0.893574
 12 C s       :     3.007523  s :     3.007523
      pz      :     0.931294  p :     3.034108
      px      :     1.042959
      py      :     1.059855
 13 H s       :     0.874379  s :     0.874379
 14 H s       :     0.903532  s :     0.903532
 15 O s       :     3.661341  s :     3.661341
      pz      :     1.597372  p :     4.697588
      px      :     1.292543
      py      :     1.807673
 16 C s       :     2.970028  s :     2.970028
      pz      :     0.943446  p :     3.015677
      px      :     1.009688
      py      :     1.062543
 17 C s       :     2.975140  s :     2.975140
      pz      :     1.089759  p :     2.987781
      px      :     1.065151
      py      :     0.832871
 18 C s       :     2.983290  s :     2.983290
      pz      :     1.024501  p :     3.281795
      px      :     1.082250
      py      :     1.175044
 19 C s       :     2.983784  s :     2.983784
      pz      :     0.943788  p :     3.046683
      px      :     0.973457
      py      :     1.129438
 20 O s       :     3.601071  s :     3.601071
      pz      :     1.240993  p :     4.730116
      px      :     1.603179
      py      :     1.885944
 21 H s       :     0.879720  s :     0.879720
 22 O s       :     3.691295  s :     3.691295
      pz      :     1.744660  p :     4.759724
      px      :     1.591105
      py      :     1.423959
 23 H s       :     0.893237  s :     0.893237
 24 H s       :     0.885707  s :     0.885707
 25 H s       :     0.832099  s :     0.832099
 26 H s       :     0.894985  s :     0.894985
 27 H s       :     0.911106  s :     0.911106
 28 H s       :     0.714452  s :     0.714452


                      *****************************
                      * MAYER POPULATION ANALYSIS *
                      *****************************

  NA   - Mulliken gross atomic population
  ZA   - Total nuclear charge
  QA   - Mulliken gross atomic charge
  VA   - Mayer's total valence
  BVA  - Mayer's bonded valence
  FA   - Mayer's free valence

  ATOM       NA         ZA         QA         VA         BVA        FA
  0 C      5.7591     6.0000     0.2409     3.6314     3.6314    -0.0000
  1 C      6.2665     6.0000    -0.2665     3.7404     3.7404    -0.0000
  2 C      6.3034     6.0000    -0.3034     3.7604     3.7604    -0.0000
  3 C      5.9999     6.0000     0.0001     3.6375     3.6375     0.0000
  4 O      8.5184     8.0000    -0.5184     1.8000     1.8000    -0.0000
  5 H      0.8341     1.0000     0.1659     0.9256     0.9256    -0.0000
  6 H      0.8479     1.0000     0.1521     0.9293     0.9293    -0.0000
  7 H      0.8405     1.0000     0.1595     0.9387     0.9387    -0.0000
  8 H      0.8525     1.0000     0.1475     0.9358     0.9358    -0.0000
  9 H      0.8294     1.0000     0.1706     0.9312     0.9312    -0.0000
 10 H      0.8423     1.0000     0.1577     0.9255     0.9255    -0.0000
 11 H      0.8499     1.0000     0.1501     0.9279     0.9279    -0.0000
 12 C      6.0398     6.0000    -0.0398     3.6286     3.6286     0.0000
 13 H      0.8302     1.0000     0.1698     0.9318     0.9318    -0.0000
 14 H      0.8747     1.0000     0.1253     0.9307     0.9307     0.0000
 15 O      8.5056     8.0000    -0.5056     1.7940     1.7940     0.0000
 16 C      5.9170     6.0000     0.0830     3.5961     3.5961     0.0000
 17 C      5.9354     6.0000     0.0646     3.6487     3.6487     0.0000
 18 C      6.3301     6.0000    -0.3301     3.6428     3.6428     0.0000
 19 C      6.0129     6.0000    -0.0129     3.6618     3.6618    -0.0000
 20 O      8.5246     8.0000    -0.5246     1.7696     1.7696    -0.0000
 21 H      0.8442     1.0000     0.1558     0.9352     0.9352    -0.0000
 22 O      8.6078     8.0000    -0.6078     1.7469     1.7469     0.0000
 23 H      0.8664     1.0000     0.1336     0.9439     0.9439    -0.0000
 24 H      0.8643     1.0000     0.1357     0.9449     0.9449     0.0000
 25 H      0.7227     1.0000     0.2773     0.8805     0.8805    -0.0000
 26 H      0.8532     1.0000     0.1468     0.9317     0.9317    -0.0000
 27 H      0.8756     1.0000     0.1244     0.9297     0.9297    -0.0000
 28 H      0.6515     1.0000     0.3485     0.8497     0.8497     0.0000

  Mayer bond orders larger than 0.100000
B(  0-C ,  1-C ) :   0.9449 B(  0-C ,  4-O ) :   0.8850 B(  0-C ,  5-H ) :   0.9013 
B(  0-C , 15-O ) :   0.8339 B(  1-C ,  2-C ) :   0.9565 B(  1-C ,  6-H ) :   0.9317 
B(  1-C ,  7-H ) :   0.9368 B(  2-C ,  3-C ) :   0.9535 B(  2-C ,  8-H ) :   0.9441 
B(  2-C ,  9-H ) :   0.9418 B(  3-C ,  4-O ) :   0.8139 B(  3-C , 10-H ) :   0.9344 
B(  3-C , 11-H ) :   0.9395 B( 12-C , 13-H ) :   0.9311 B( 12-C , 14-H ) :   0.9139 
B( 12-C , 15-O ) :   0.8676 B( 12-C , 16-C ) :   0.8741 B( 16-C , 17-C ) :   0.9078 
B( 16-C , 20-O ) :   0.8866 B( 16-C , 21-H ) :   0.9182 B( 17-C , 18-C ) :   0.9252 
B( 17-C , 22-O ) :   0.8733 B( 17-C , 23-H ) :   0.9274 B( 18-C , 19-C ) :   0.9409 
B( 18-C , 24-H ) :   0.9414 B( 18-C , 25-H ) :   0.8292 B( 19-C , 20-O ) :   0.8319 
B( 19-C , 26-H ) :   0.9333 B( 19-C , 27-H ) :   0.9379 B( 22-O , 28-H ) :   0.8092 


-------
TIMINGS
-------

Total SCF time: 0 days 0 hours 2 min 6 sec 

Total time                  ....     126.359 sec
Sum of individual times     ....     117.937 sec  ( 93.3%)

Fock matrix formation       ....     109.899 sec  ( 87.0%)
  XC integration            ....      17.651 sec  ( 16.1% of F)
    Basis function eval.    ....       3.082 sec  ( 17.5% of XC)
    Density eval.           ....       1.359 sec  (  7.7% of XC)
    XC-Functional eval.     ....       0.701 sec  (  4.0% of XC)
    XC-Potential eval.      ....       1.360 sec  (  7.7% of XC)
Diagonalization             ....       0.119 sec  (  0.1%)
Density matrix formation    ....       0.011 sec  (  0.0%)
Population analysis         ....       0.107 sec  (  0.1%)
Initial guess               ....       0.881 sec  (  0.7%)
Orbital Transformation      ....       0.000 sec  (  0.0%)
Orbital Orthonormalization  ....       0.000 sec  (  0.0%)
DIIS solution               ....       1.744 sec  (  1.4%)
SOSCF solution              ....       0.097 sec  (  0.1%)
Grid generation             ....       5.080 sec  (  4.0%)

-------------------------   --------------------
FINAL SINGLE POINT ENERGY      -652.813618000164
-------------------------   --------------------

------------------------------------------------------------------------------
                         ORCA SCF GRADIENT CALCULATION
------------------------------------------------------------------------------

Gradient of the Kohn-Sham DFT energy:
Kohn-Sham wavefunction type      ... RKS
Hartree-Fock exchange scaling    ...    0.200
Number of operators              ...    1
Number of atoms                  ...   29
Basis set dimensions             ...  149
Integral neglect threshold       ... 2.5e-11
Integral primitive cutoff        ... 2.5e-12

Nuclear repulsion gradient       ... done
One Electron Gradient            ... done
Pre-screening matrix             ... done
Starting the two electron gradient:
Two electron gradient done
Exchange-correlation gradient    ... done

------------------
CARTESIAN GRADIENT
------------------

   1   C   :    0.010861688   -0.008158260    0.008796865
   2   C   :    0.008885930   -0.002745291   -0.004705100
   3   C   :    0.000294633   -0.000621762   -0.001781370
   4   C   :   -0.002500778   -0.008649039   -0.005629756
   5   O   :    0.000800844   -0.023193346    0.014256531
   6   H   :    0.001782227   -0.002090576   -0.001034967
   7   H   :   -0.000007785    0.002505948   -0.000008428
   8   H   :    0.000625535    0.002465550   -0.001217927
   9   H   :   -0.000612263    0.000844637    0.000064918
  10   H   :   -0.000567820    0.001852273    0.000920298
  11   H   :   -0.000278873    0.001590351    0.001861744
  12   H   :   -0.000053730    0.001440933    0.000877321
  13   C   :   -0.010963821    0.005814711   -0.012390153
  14   H   :   -0.006982914   -0.005201385   -0.009484098
  15   H   :   -0.003477374   -0.004803396   -0.000652822
  16   O   :   -0.012363568    0.004363476    0.028375504
  17   C   :   -0.009290091   -0.014157967   -0.009419129
  18   C   :    0.018502516    0.030444036   -0.017193443
  19   C   :    0.006427519    0.007377761    0.001736218
  20   C   :   -0.004262029    0.000045827   -0.003172275
  21   O   :    0.000458973    0.000613544    0.003484682
  22   H   :   -0.001067674    0.001762340    0.002172064
  23   O   :    0.034807008   -0.014185427   -0.031055755
  24   H   :    0.003705656    0.013546574    0.002162357
  25   H   :    0.000793348    0.002788814    0.003242954
  26   H   :    0.016821227    0.029267503   -0.010923839
  27   H   :   -0.000334552   -0.000031496    0.001845141
  28   H   :    0.001488477    0.000928170   -0.000677810
  29   H   :   -0.053492313   -0.023814501    0.039550274

Difference to translation invariance:
           :    0.0000000001   -0.0000000000   -0.0000000001

Norm of the cartesian gradient     ...    0.1170380699
RMS gradient                       ...    0.0125477982
MAX gradient                       ...    0.0534923130

-------
TIMINGS
-------

Total SCF gradient time            ...       27.211 sec

One electron gradient       ....       0.302 sec  (  1.1%)
Prescreening matrices       ....       0.049 sec  (  0.2%)
Two electron gradient       ....      16.835 sec  ( 61.9%)
XC gradient                 ....       9.147 sec  ( 33.6%)
------------------------------------------------------------------------------
                         ORCA GEOMETRY RELAXATION STEP
------------------------------------------------------------------------------

Reading the OPT-File                    .... done
Getting information on internals        .... done
Copying old internal coords+grads       .... done
Making the new internal coordinates     .... (new redundants).... done
Validating the new internal coordinates .... (new redundants).... done
Calculating the B-matrix                .... done
Calculating the G,G- and P matrices     .... done
Transforming gradient to internals      .... done
Projecting the internal gradient        .... done
Number of atoms                         ....  29
Number of internal coordinates          .... 172
Current Energy                          ....  -652.813618000 Eh
Current gradient norm                   ....     0.117038070 Eh/bohr
Maximum allowed component of the step   ....  0.300
Current trust radius                    ....  0.300
Evaluating the initial hessian          ....  (Almloef) done
Projecting the Hessian                  .... done
Forming the augmented Hessian           .... done
Diagonalizing the augmented Hessian     .... done
Last element of RFO vector              ....  0.838668975
Lowest eigenvalues of augmented Hessian:
 -0.159275634  0.007782092  0.033070451  0.033635200  0.038030749
Length of the computed step             ....  0.649411752
Warning: the length of the step is outside the trust region - taking restricted step instead
The input lambda is                     ....    -0.159276
   iter:   1  x=   -0.291222  g=    2.514175 f(x)=     0.331736
   iter:   2  x=   -0.441748  g=    0.888186 f(x)=     0.133695
   iter:   3  x=   -0.552287  g=    0.396707 f(x)=     0.043852
   iter:   4  x=   -0.588433  g=    0.249283 f(x)=     0.009011
   iter:   5  x=   -0.591150  g=    0.217555 f(x)=     0.000591
   iter:   6  x=   -0.591164  g=    0.215397 f(x)=     0.000003
   iter:   7  x=   -0.591164  g=    0.215387 f(x)=     0.000000
   iter:   8  x=   -0.591164  g=    0.215387 f(x)=     0.000000
The output lambda is                    ....    -0.591164 (8 iterations)
The final length of the internal step   ....  0.300000000
Converting the step to cartesian space:
 Initial RMS(Int)=    0.0228747855
Transforming coordinates:
 Iter   0:  RMS(Cart)=    0.3541697492 RMS(Int)=    0.4789862295
 Iter   1:  RMS(Cart)=    0.0226431789 RMS(Int)=    0.0099002025
 Iter   2:  RMS(Cart)=    0.0048335062 RMS(Int)=    0.0006017122
 Iter   3:  RMS(Cart)=    0.0006354980 RMS(Int)=    0.0002993985
 Iter   4:  RMS(Cart)=    0.0001360107 RMS(Int)=    0.0000228690
 Iter   5:  RMS(Cart)=    0.0000198154 RMS(Int)=    0.0000095387
 Iter   6:  RMS(Cart)=    0.0000040854 RMS(Int)=    0.0000008905
 Iter   7:  RMS(Cart)=    0.0000006356 RMS(Int)=    0.0000003108
 Iter   8:  RMS(Cart)=    0.0000001275 RMS(Int)=    0.0000000354
 Iter   9:  RMS(Cart)=    0.0000000211 RMS(Int)=    0.0000000104
Imposing constraints:
 Iter   0:  RMS(Cart)=    0.0004581431 RMS(Int)=    0.0001695601
 Iter   1:  RMS(Cart)=    0.0002329410 RMS(Int)=    0.0001137889
 Iter   2:  RMS(Cart)=    0.0001326047 RMS(Int)=    0.0000878939
 Iter   3:  RMS(Cart)=    0.0000836688 RMS(Int)=    0.0000739808
 Iter   4:  RMS(Cart)=    0.0000570072 RMS(Int)=    0.0000658345
 Iter   5:  RMS(Cart)=    0.0000410418 RMS(Int)=    0.0000607697
 Iter   6:  RMS(Cart)=    0.0000308691 RMS(Int)=    0.0000573873
 Iter   7:  RMS(Cart)=    0.0000241526 RMS(Int)=    0.0000549199
 Iter   8:  RMS(Cart)=    0.0000196257 RMS(Int)=    0.0000529517
 Iter   9:  RMS(Cart)=    0.0000165285 RMS(Int)=    0.0000512624
 Iter  10:  RMS(Cart)=    0.0000143760 RMS(Int)=    0.0000497373
 Iter  11:  RMS(Cart)=    0.0000128494 RMS(Int)=    0.0000483168
 Iter  12:  RMS(Cart)=    0.0000117383 RMS(Int)=    0.0000469698
 Iter  13:  RMS(Cart)=    0.0000109041 RMS(Int)=    0.0000456801
 Iter  14:  RMS(Cart)=    0.0000102560 RMS(Int)=    0.0000444386
 Iter  15:  RMS(Cart)=    0.0000097344 RMS(Int)=    0.0000432401
 Iter  16:  RMS(Cart)=    0.0000093002 RMS(Int)=    0.0000420814
 Iter  17:  RMS(Cart)=    0.0000089275 RMS(Int)=    0.0000409603
 Iter  18:  RMS(Cart)=    0.0000085990 RMS(Int)=    0.0000398750
 Iter  19:  RMS(Cart)=    0.0000083028 RMS(Int)=    0.0000388240
 Iter  20:  RMS(Cart)=    0.0000080310 RMS(Int)=    0.0000378060
 Iter  21:  RMS(Cart)=    0.0000077781 RMS(Int)=    0.0000368200
 Iter  22:  RMS(Cart)=    0.0000075402 RMS(Int)=    0.0000358647
 Iter  23:  RMS(Cart)=    0.0000073147 RMS(Int)=    0.0000349391
 Iter  24:  RMS(Cart)=    0.0000070996 RMS(Int)=    0.0000340422
 Iter  25:  RMS(Cart)=    0.0000068935 RMS(Int)=    0.0000331730
 Iter  26:  RMS(Cart)=    0.0000066954 RMS(Int)=    0.0000323305
 Iter  27:  RMS(Cart)=    0.0000065046 RMS(Int)=    0.0000315140
 Iter  28:  RMS(Cart)=    0.0000063204 RMS(Int)=    0.0000307224
 Iter  29:  RMS(Cart)=    0.0000061424 RMS(Int)=    0.0000299549
 Iter  30:  RMS(Cart)=    0.0000059703 RMS(Int)=    0.0000292108
 Iter  31:  RMS(Cart)=    0.0000058036 RMS(Int)=    0.0000284893
 Iter  32:  RMS(Cart)=    0.0000056423 RMS(Int)=    0.0000277895
 Iter  33:  RMS(Cart)=    0.0000054860 RMS(Int)=    0.0000271108
 Iter  34:  RMS(Cart)=    0.0000053345 RMS(Int)=    0.0000264525
 Iter  35:  RMS(Cart)=    0.0000051877 RMS(Int)=    0.0000258138
 Iter  36:  RMS(Cart)=    0.0000050454 RMS(Int)=    0.0000251942
[...]
  29   2.0000      -0.487180       -13.2568 
  30   2.0000      -0.472231       -12.8501 
  31   2.0000      -0.452261       -12.3067 
  32   2.0000      -0.449098       -12.2206 
  33   2.0000      -0.437896       -11.9157 
  34   2.0000      -0.431951       -11.7540 
  35   2.0000      -0.407729       -11.0949 
  36   2.0000      -0.402406       -10.9500 
  37   2.0000      -0.383271       -10.4293 
  38   2.0000      -0.378505       -10.2996 
  39   2.0000      -0.363056        -9.8792 
  40   2.0000      -0.362088        -9.8529 
  41   2.0000      -0.352568        -9.5939 
  42   2.0000      -0.351766        -9.5720 
  43   2.0000      -0.328236        -8.9318 
  44   2.0000      -0.320333        -8.7167 
  45   2.0000      -0.310816        -8.4577 
  46   2.0000      -0.299213        -8.1420 
  47   2.0000      -0.274439        -7.4679 
  48   2.0000      -0.262492        -7.1428 
  49   2.0000      -0.260510        -7.0888 
  50   2.0000      -0.232731        -6.3329 
  51   0.0000       0.067420         1.8346 
  52   0.0000       0.078975         2.1490 
  53   0.0000       0.090896         2.4734 
  54   0.0000       0.105218         2.8631 
  55   0.0000       0.110642         3.0107 
  56   0.0000       0.114784         3.1234 
  57   0.0000       0.122352         3.3294 
  58   0.0000       0.127367         3.4658 
  59   0.0000       0.131614         3.5814 
  60   0.0000       0.141435         3.8487 
  61   0.0000       0.148599         4.0436 
  62   0.0000       0.151986         4.1358 
  63   0.0000       0.161367         4.3910 
  64   0.0000       0.165849         4.5130 
  65   0.0000       0.168816         4.5937 
  66   0.0000       0.174897         4.7592 
  67   0.0000       0.192408         5.2357 
  68   0.0000       0.193868         5.2754 
  69   0.0000       0.198599         5.4042 
  70   0.0000       0.218668         5.9503 
  71   0.0000       0.221464         6.0263 
  72   0.0000       0.235463         6.4073 
  73   0.0000       0.241308         6.5663 
  74   0.0000       0.250115         6.8060 
  75   0.0000       0.255031         6.9397 
  76   0.0000       0.271535         7.3888 
  77   0.0000       0.293683         7.9915 
  78   0.0000       0.301592         8.2067 
  79   0.0000       0.309402         8.4193 
  80   0.0000       0.323099         8.7920 
  81   0.0000       0.509042        13.8517 
  82   0.0000       0.539292        14.6749 
  83   0.0000       0.546072        14.8594 
  84   0.0000       0.550347        14.9757 
  85   0.0000       0.560597        15.2546 
  86   0.0000       0.566902        15.4262 
  87   0.0000       0.580169        15.7872 
  88   0.0000       0.586424        15.9574 
  89   0.0000       0.594880        16.1875 
  90   0.0000       0.602761        16.4020 
  91   0.0000       0.609784        16.5931 
  92   0.0000       0.615260        16.7421 
  93   0.0000       0.627713        17.0809 
  94   0.0000       0.638892        17.3851 
  95   0.0000       0.651840        17.7375 
  96   0.0000       0.656574        17.8663 
  97   0.0000       0.674598        18.3567 
  98   0.0000       0.713118        19.4049 
  99   0.0000       0.728338        19.8191 
 100   0.0000       0.773857        21.0577 
 101   0.0000       0.782388        21.2899 
 102   0.0000       0.796531        21.6747 
 103   0.0000       0.809980        22.0407 
 104   0.0000       0.820903        22.3379 
 105   0.0000       0.833957        22.6931 
 106   0.0000       0.848499        23.0888 
 107   0.0000       0.854185        23.2436 
 108   0.0000       0.862310        23.4646 
 109   0.0000       0.881426        23.9848 
 110   0.0000       0.881773        23.9943 
 111   0.0000       0.895776        24.3753 
 112   0.0000       0.904126        24.6025 
 113   0.0000       0.918896        25.0044 
 114   0.0000       0.926267        25.2050 
 115   0.0000       0.934642        25.4329 
 116   0.0000       0.940257        25.5857 
 117   0.0000       0.945327        25.7236 
 118   0.0000       0.958446        26.0806 
 119   0.0000       0.970404        26.4060 
 120   0.0000       0.974458        26.5163 
 121   0.0000       0.986321        26.8392 
 122   0.0000       0.998152        27.1611 
 123   0.0000       1.010090        27.4859 
 124   0.0000       1.046370        28.4732 
 125   0.0000       1.083582        29.4858 
 126   0.0000       1.104630        30.0585 
 127   0.0000       1.115921        30.3658 
 128   0.0000       1.135155        30.8891 
 129   0.0000       1.146721        31.2039 
 130   0.0000       1.180688        32.1282 
 131   0.0000       1.208346        32.8808 
 132   0.0000       1.260164        34.2908 
 133   0.0000       1.313814        35.7507 
 134   0.0000       1.348507        36.6947 
 135   0.0000       1.360654        37.0253 
 136   0.0000       1.396519        38.0012 
 137   0.0000       1.431528        38.9538 
 138   0.0000       1.470059        40.0024 
 139   0.0000       1.486114        40.4392 
 140   0.0000       1.544338        42.0236 
 141   0.0000       1.627730        44.2928 
 142   0.0000       1.669704        45.4350 
 143   0.0000       1.726757        46.9874 
 144   0.0000       1.805933        49.1419 
 145   0.0000       1.895135        51.5692 
 146   0.0000       1.951594        53.1056 
 147   0.0000       2.087791        56.8117 
 148   0.0000       2.142145        58.2907 

                    ********************************
                    * MULLIKEN POPULATION ANALYSIS *
                    ********************************

-----------------------
MULLIKEN ATOMIC CHARGES
-----------------------
   0 C :    0.283479
   1 C :   -0.250526
   2 C :   -0.302555
   3 C :    0.001943
   4 O :   -0.513787
   5 H :    0.144180
   6 H :    0.143470
   7 H :    0.148790
   8 H :    0.144045
   9 H :    0.167824
  10 H :    0.155505
  11 H :    0.144599
  12 C :   -0.025060
  13 H :    0.170016
  14 H :    0.118597
  15 O :   -0.509074
  16 C :    0.083402
  17 C :    0.065779
  18 C :   -0.324784
  19 C :   -0.023149
  20 O :   -0.525909
  21 H :    0.149991
  22 O :   -0.604541
  23 H :    0.141552
  24 H :    0.146436
  25 H :    0.214229
  26 H :    0.157225
  27 H :    0.134395
  28 H :    0.363928
Sum of atomic charges:    0.0000000

--------------------------------
MULLIKEN REDUCED ORBITAL CHARGES
--------------------------------
  0 C s       :     3.202260  s :     3.202260
      pz      :     0.788266  p :     2.514260
      px      :     0.692593
      py      :     1.033401
  1 C s       :     3.300516  s :     3.300516
      pz      :     0.986571  p :     2.950010
      px      :     1.032255
      py      :     0.931184
  2 C s       :     3.316957  s :     3.316957
      pz      :     0.901809  p :     2.985598
      px      :     1.090235
      py      :     0.993554
  3 C s       :     3.261806  s :     3.261806
      pz      :     0.947489  p :     2.736250
      px      :     1.067242
      py      :     0.721518
  4 O s       :     3.942856  s :     3.942856
      pz      :     1.307136  p :     4.570932
      px      :     1.763256
      py      :     1.500539
  5 H s       :     0.855820  s :     0.855820
  6 H s       :     0.856530  s :     0.856530
  7 H s       :     0.851210  s :     0.851210
  8 H s       :     0.855955  s :     0.855955
  9 H s       :     0.832176  s :     0.832176
 10 H s       :     0.844495  s :     0.844495
 11 H s       :     0.855401  s :     0.855401
 12 C s       :     3.267362  s :     3.267362
      pz      :     0.842449  p :     2.757699
      px      :     0.960246
      py      :     0.955003
 13 H s       :     0.829984  s :     0.829984
 14 H s       :     0.881403  s :     0.881403
 15 O s       :     3.918368  s :     3.918368
      pz      :     1.602102  p :     4.590706
      px      :     1.237771
      py      :     1.750834
 16 C s       :     3.252388  s :     3.252388
      pz      :     0.820022  p :     2.664210
      px      :     0.901208
      py      :     0.942980
 17 C s       :     3.272584  s :     3.272584
      pz      :     0.989981  p :     2.661637
      px      :     0.955498
      py      :     0.716157
 18 C s       :     3.326112  s :     3.326112
      pz      :     0.901033  p :     2.998671
      px      :     0.988591
      py      :     1.109047
 19 C s       :     3.268327  s :     3.268327
      pz      :     0.845959  p :     2.754822
      px      :     0.875689
      py      :     1.033175
 20 O s       :     3.943079  s :     3.943079
      pz      :     1.190968  p :     4.582830
      px      :     1.576295
      py      :     1.815567
 21 H s       :     0.850009  s :     0.850009
 22 O s       :     3.920273  s :     3.920273
      pz      :     1.775104  p :     4.684268
      px      :     1.419191
      py      :     1.489973
 23 H s       :     0.858448  s :     0.858448
 24 H s       :     0.853564  s :     0.853564
 25 H s       :     0.785771  s :     0.785771
 26 H s       :     0.842775  s :     0.842775
 27 H s       :     0.865605  s :     0.865605
 28 H s       :     0.636072  s :     0.636072


                     *******************************
                     * LOEWDIN POPULATION ANALYSIS *
                     *******************************

----------------------
LOEWDIN ATOMIC CHARGES
----------------------
   0 C :    0.171572
   1 C :   -0.220016
   2 C :   -0.215848
   3 C :   -0.024118
   4 O :   -0.313773
   5 H :    0.097231
   6 H :    0.112643
   7 H :    0.119110
   8 H :    0.115548
   9 H :    0.122274
  10 H :    0.110064
  11 H :    0.103861
  12 C :   -0.040246
  13 H :    0.124165
  14 H :    0.091901
  15 O :   -0.331174
  16 C :    0.004709
  17 C :    0.032285
  18 C :   -0.252568
  19 C :   -0.033254
  20 O :   -0.330790
  21 H :    0.114386
  22 O :   -0.416690
  23 H :    0.109131
  24 H :    0.119042
  25 H :    0.142697
  26 H :    0.110365
  27 H :    0.094848
  28 H :    0.282646

-------------------------------
LOEWDIN REDUCED ORBITAL CHARGES
-------------------------------
  0 C s       :     2.954403  s :     2.954403
      pz      :     0.917820  p :     2.874026
      px      :     0.855032
      py      :     1.101173
  1 C s       :     2.978660  s :     2.978660
      pz      :     1.078291  p :     3.241357
      px      :     1.109676
      py      :     1.053389
  2 C s       :     2.971059  s :     2.971059
      pz      :     1.028134  p :     3.244789
      px      :     1.135966
      py      :     1.080689
  3 C s       :     2.984897  s :     2.984897
      pz      :     1.047345  p :     3.039221
      px      :     1.127229
      py      :     0.864646
  4 O s       :     3.594509  s :     3.594509
      pz      :     1.376788  p :     4.719264
      px      :     1.793627
      py      :     1.548849
  5 H s       :     0.902769  s :     0.902769
  6 H s       :     0.887357  s :     0.887357
  7 H s       :     0.880890  s :     0.880890
  8 H s       :     0.884452  s :     0.884452
  9 H s       :     0.877726  s :     0.877726
 10 H s       :     0.889936  s :     0.889936
 11 H s       :     0.896139  s :     0.896139
 12 C s       :     2.980931  s :     2.980931
      pz      :     0.961277  p :     3.059315
      px      :     1.037013
      py      :     1.061025
 13 H s       :     0.875835  s :     0.875835
 14 H s       :     0.908099  s :     0.908099
 15 O s       :     3.588238  s :     3.588238
      pz      :     1.654854  p :     4.742936
      px      :     1.312785
      py      :     1.775297
 16 C s       :     2.967607  s :     2.967607
      pz      :     0.937195  p :     3.027684
      px      :     1.014208
      py      :     1.076281
 17 C s       :     2.954522  s :     2.954522
      pz      :     1.074889  p :     3.013193
      px      :     1.049860
      py      :     0.888444
 18 C s       :     2.984505  s :     2.984505
      pz      :     1.035253  p :     3.268064
      px      :     1.090165
      py      :     1.142646
 19 C s       :     2.984785  s :     2.984785
      pz      :     0.956342  p :     3.048468
      px      :     0.995771
      py      :     1.096356
 20 O s       :     3.599470  s :     3.599470
      pz      :     1.268086  p :     4.731320
      px      :     1.622262
      py      :     1.840972
 21 H s       :     0.885614  s :     0.885614
 22 O s       :     3.614698  s :     3.614698
      pz      :     1.800031  p :     4.801992
      px      :     1.462815
      py      :     1.539145
 23 H s       :     0.890869  s :     0.890869
 24 H s       :     0.880958  s :     0.880958
 25 H s       :     0.857303  s :     0.857303
 26 H s       :     0.889635  s :     0.889635
 27 H s       :     0.905152  s :     0.905152
 28 H s       :     0.717354  s :     0.717354


                      *****************************
                      * MAYER POPULATION ANALYSIS *
                      *****************************

  NA   - Mulliken gross atomic population
  ZA   - Total nuclear charge
  QA   - Mulliken gross atomic charge
  VA   - Mayer's total valence
  BVA  - Mayer's bonded valence
  FA   - Mayer's free valence

  ATOM       NA         ZA         QA         VA         BVA        FA
  0 C      5.7165     6.0000     0.2835     3.6484     3.6484     0.0000
  1 C      6.2505     6.0000    -0.2505     3.7303     3.7303     0.0000
  2 C      6.3026     6.0000    -0.3026     3.7644     3.7644     0.0000
  3 C      5.9981     6.0000     0.0019     3.6485     3.6485    -0.0000
  4 O      8.5138     8.0000    -0.5138     1.7953     1.7953     0.0000
  5 H      0.8558     1.0000     0.1442     0.9352     0.9352     0.0000
  6 H      0.8565     1.0000     0.1435     0.9320     0.9320     0.0000
  7 H      0.8512     1.0000     0.1488     0.9404     0.9404     0.0000
  8 H      0.8560     1.0000     0.1440     0.9367     0.9367    -0.0000
  9 H      0.8322     1.0000     0.1678     0.9334     0.9334    -0.0000
 10 H      0.8445     1.0000     0.1555     0.9257     0.9257     0.0000
 11 H      0.8554     1.0000     0.1446     0.9289     0.9289    -0.0000
 12 C      6.0251     6.0000    -0.0251     3.6514     3.6514    -0.0000
 13 H      0.8300     1.0000     0.1700     0.9298     0.9298     0.0000
 14 H      0.8814     1.0000     0.1186     0.9331     0.9331    -0.0000
 15 O      8.5091     8.0000    -0.5091     1.7523     1.7523     0.0000
 16 C      5.9166     6.0000     0.0834     3.5854     3.5854     0.0000
 17 C      5.9342     6.0000     0.0658     3.6527     3.6527    -0.0000
 18 C      6.3248     6.0000    -0.3248     3.6655     3.6655    -0.0000
 19 C      6.0231     6.0000    -0.0231     3.6621     3.6621     0.0000
 20 O      8.5259     8.0000    -0.5259     1.7670     1.7670     0.0000
 21 H      0.8500     1.0000     0.1500     0.9338     0.9338     0.0000
 22 O      8.6045     8.0000    -0.6045     1.7412     1.7412     0.0000
 23 H      0.8584     1.0000     0.1416     0.9408     0.9408    -0.0000
 24 H      0.8536     1.0000     0.1464     0.9419     0.9419    -0.0000
 25 H      0.7858     1.0000     0.2142     0.9363     0.9363    -0.0000
 26 H      0.8428     1.0000     0.1572     0.9284     0.9284    -0.0000
 27 H      0.8656     1.0000     0.1344     0.9287     0.9287     0.0000
 28 H      0.6361     1.0000     0.3639     0.8329     0.8329     0.0000

  Mayer bond orders larger than 0.100000
B(  0-C ,  1-C ) :   0.9421 B(  0-C ,  4-O ) :   0.8994 B(  0-C ,  5-H ) :   0.9140 
B(  0-C , 15-O ) :   0.8356 B(  1-C ,  2-C ) :   0.9547 B(  1-C ,  6-H ) :   0.9351 
B(  1-C ,  7-H ) :   0.9393 B(  2-C ,  3-C ) :   0.9546 B(  2-C ,  8-H ) :   0.9448 
B(  2-C ,  9-H ) :   0.9423 B(  3-C ,  4-O ) :   0.8239 B(  3-C , 10-H ) :   0.9350 
B(  3-C , 11-H ) :   0.9400 B( 12-C , 13-H ) :   0.9319 B( 12-C , 14-H ) :   0.9139 
B( 12-C , 15-O ) :   0.8749 B( 12-C , 16-C ) :   0.8831 B( 16-C , 17-C ) :   0.9071 
B( 16-C , 20-O ) :   0.8751 B( 16-C , 21-H ) :   0.9135 B( 17-C , 18-C ) :   0.9208 
B( 17-C , 22-O ) :   0.8866 B( 17-C , 23-H ) :   0.9336 B( 18-C , 19-C ) :   0.9436 
B( 18-C , 24-H ) :   0.9391 B( 18-C , 25-H ) :   0.8868 B( 19-C , 20-O ) :   0.8371 
B( 19-C , 26-H ) :   0.9334 B( 19-C , 27-H ) :   0.9378 B( 22-O , 28-H ) :   0.7953 


-------
TIMINGS
-------

Total SCF time: 0 days 0 hours 0 min 48 sec 

Total time                  ....      48.330 sec
Sum of individual times     ....      45.624 sec  ( 94.4%)

Fock matrix formation       ....      41.419 sec  ( 85.7%)
  XC integration            ....      12.436 sec  ( 30.0% of F)
    Basis function eval.    ....       1.490 sec  ( 12.0% of XC)
    Density eval.           ....       0.636 sec  (  5.1% of XC)
    XC-Functional eval.     ....       0.379 sec  (  3.0% of XC)
    XC-Potential eval.      ....       0.641 sec  (  5.2% of XC)
Diagonalization             ....       0.005 sec  (  0.0%)
Density matrix formation    ....       0.004 sec  (  0.0%)
Population analysis         ....       0.017 sec  (  0.0%)
Initial guess               ....       0.006 sec  (  0.0%)
Orbital Transformation      ....       0.000 sec  (  0.0%)
Orbital Orthonormalization  ....       0.003 sec  (  0.0%)
DIIS solution               ....       0.001 sec  (  0.0%)
SOSCF solution              ....       0.035 sec  (  0.1%)
Grid generation             ....       4.136 sec  (  8.6%)

-------------------------   --------------------
FINAL SINGLE POINT ENERGY      -652.860459061991
-------------------------   --------------------

                                *** OPTIMIZATION RUN DONE ***

                            ***************************************
                            *     ORCA property calculations      *
                            ***************************************

                                    ---------------------
                                    Active property flags
                                    ---------------------
   (+) Dipole Moment


------------------------------------------------------------------------------
                       ORCA ELECTRIC PROPERTIES CALCULATION
------------------------------------------------------------------------------

Dipole Moment Calculation                       ... on
Quadrupole Moment Calculation                   ... off
Polarizability Calculation                      ... off
GBWName                                         ... project_8048/ensemble_225_90.gbw
Electron density file                           ... project_8048/ensemble_225_90.scfp
The origin for moment calculation is the CENTER OF MASS  = (-41.924879, 47.772784 88.069837)

-------------
DIPOLE MOMENT
-------------
                                X             Y             Z
Electronic contribution:     -3.56297      -3.59372      -0.83862
Nuclear contribution   :      4.32609       4.59871       0.72546
                        -----------------------------------------
Total Dipole Moment    :      0.76312       1.00499      -0.11316
                        -----------------------------------------
Magnitude (a.u.)       :      1.26695
Magnitude (Debye)      :      3.22033



--------------------
Rotational spectrum 
--------------------
 
Rotational constants in cm-1:     0.053948     0.015165     0.014441 
Rotational constants in MHz :  1617.333569   454.629325   432.923246 

 Dipole components along the rotational axes: 
x,y,z [a.u.] :    -1.228146    -0.251008     0.183884 
x,y,z [Debye]:    -3.121700    -0.638011     0.467396 

 

Timings for individual modules:

Sum of individual times         ...      909.160 sec (=  15.153 min)
GTO integral calculation        ...       16.114 sec (=   0.269 min)   1.8 %
SCF iterations                  ...      693.878 sec (=  11.565 min)  76.3 %
SCF Gradient evaluation         ...      190.548 sec (=   3.176 min)  21.0 %
Geometry relaxation             ...        8.619 sec (=   0.144 min)   0.9 %
                             ****ORCA TERMINATED NORMALLY****
TOTAL RUN TIME: 0 days 0 hours 15 minutes 47 seconds 233 msec
