
                                 *****************
                                 * O   R   C   A *
                                 *****************

           --- An Ab Initio, DFT and Semiempirical electronic structure package ---

                  #######################################################
                  #                        -***-                        #
                  #          Department of theory and spectroscopy      #
                  #               Directorship: Frank Neese             #
                  #        Max Planck Institute fuer Kohlenforschung    #
                  #                Kaiser Wilhelm Platz 1               #
                  #                 D-45470 Muelheim/Ruhr               #
                  #                      Germany                        #
                  #                                                     #
                  #                  All rights reserved                #
                  #                        -***-                        #
                  #######################################################


                         Program Version 4.2.0 -  RELEASE  -


 With contributions from (in alphabetic order):
   Daniel Aravena         : Magnetic Suceptibility
   Michael Atanasov       : Ab Initio Ligand Field Theory (pilot matlab implementation)
   Alexander A. Auer      : GIAO ZORA, VPT2
   Ute Becker             : Parallelization
   Giovanni Bistoni       : ED, misc. LED, open-shell LED, HFLED
   Martin Brehm           : Molecular dynamics
   Dmytro Bykov           : SCF Hessian
   Vijay G. Chilkuri      : MRCI spin determinant printing, contributions to CSF-ICE
   Dipayan Datta          : RHF DLPNO-CCSD density
   Achintya Kumar Dutta   : EOM-CC, STEOM-CC
   Dmitry Ganyushin       : Spin-Orbit,Spin-Spin,Magnetic field MRCI
   Miquel Garcia          : C-PCM Hessian, Gaussian charge scheme
   Yang Guo               : DLPNO-NEVPT2, CIM, IAO-localization
   Andreas Hansen         : Spin unrestricted coupled pair/coupled cluster methods
   Benjamin Helmich-Paris : CASSCF linear response (MC-RPA)
   Lee Huntington         : MR-EOM, pCC
   Robert Izsak           : Overlap fitted RIJCOSX, COSX-SCS-MP3, EOM
   Christian Kollmar      : KDIIS, OOCD, Brueckner-CCSD(T), CCSD density
   Simone Kossmann        : Meta GGA functionals, TD-DFT gradient, OOMP2, MP2 Hessian
   Martin Krupicka        : AUTO-CI
   Lucas Lang             : DCDCAS
   Dagmar Lenk            : GEPOL surface, SMD
   Dimitrios Liakos       : Extrapolation schemes; Compound Job, initial MDCI parallelization
   Dimitrios Manganas     : Further ROCIS development; embedding schemes
   Dimitrios Pantazis     : SARC Basis sets
   Taras Petrenko         : DFT Hessian,TD-DFT gradient, ASA, ECA, R-Raman, ABS, FL, XAS/XES, NRVS
   Peter Pinski           : DLPNO-MP2, DLPNO-MP2 Gradient
   Christoph Reimann      : Effective Core Potentials
   Marius Retegan         : Local ZFS, SOC
   Christoph Riplinger    : Optimizer, TS searches, QM/MM, DLPNO-CCSD(T), (RO)-DLPNO pert. Triples
   Tobias Risthaus        : Range-separated hybrids, TD-DFT gradient, RPA, STAB
   Michael Roemelt        : Original ROCIS implementation
   Masaaki Saitow         : Open-shell DLPNO-CCSD energy and density
   Barbara Sandhoefer     : DKH picture change effects
   Avijit Sen             : IP-ROCIS
   Kantharuban Sivalingam : CASSCF convergence, NEVPT2, FIC-MRCI
   Bernardo de Souza      : ESD, SOC TD-DFT
   Georgi Stoychev        : AutoAux, RI-MP2 NMR
   Willem Van den Heuvel  : Paramagnetic NMR
   Boris Wezisla          : Elementary symmetry handling
   Frank Wennmohs         : Technical directorship


 We gratefully acknowledge several colleagues who have allowed us to
 interface, adapt or use parts of their codes:
   Stefan Grimme, W. Hujo, H. Kruse,             : VdW corrections, initial TS optimization,
                  C. Bannwarth                     DFT functionals, gCP, sTDA/sTD-DF
   Ed Valeev, F. Pavosevic, A. Kumar             : LibInt (2-el integral package), F12 methods
   Garnet Chan, S. Sharma, J. Yang, R. Olivares  : DMRG
   Ulf Ekstrom                                   : XCFun DFT Library
   Mihaly Kallay                                 : mrcc  (arbitrary order and MRCC methods)
   Andreas Klamt, Michael Diedenhofen            : otool_cosmo (COSMO solvation model)
   Jiri Pittner, Ondrej Demel                    : Mk-CCSD
   Frank Weinhold                                : gennbo (NPA and NBO analysis)
   Christopher J. Cramer and Donald G. Truhlar   : smd solvation model
   Lars Goerigk                                  : TD-DFT with DH, B97 family of functionals
   V. Asgeirsson, H. Jonsson                     : NEB implementation
   FAccTs GmbH                                   : IRC, NEB, NEB-TS, Multilevel, MM, QM/MM, CI optimization
   S Lehtola, MJT Oliveira, MAL Marques          : LibXC Library


 Your calculation uses the libint2 library for the computation of 2-el integrals
 For citations please refer to: http://libint.valeyev.net

 Your ORCA version has been built with support for libXC version: 4.2.3
 For citations please refer to: https://tddft.org/programs/libxc/

 This ORCA versions uses:
   CBLAS   interface :  Fast vector & matrix operations
   LAPACKE interface :  Fast linear algebra routines
   SCALAPACK package :  Parallel linear algebra routines


----- Orbital basis set information -----
Your calculation utilizes the basis: 6-31G
   H-He, Li-Ne : W. J. Hehre, R. Ditchfield and J.A. Pople, J. Chem. Phys. 56, 2257 (1972).
                 Note: He and Ne are unpublished basis sets taken from the Gaussian program.
                 Note: Li and B from J. D. Dill and J. A. Pople, J. Chem. Phys. 62, 2921 (1975).
   Na - Ar     : M. M. Francl, W. J. Pietro, W. J. Hehre, J. S. Binkley, M. S. Gordon, 
                 D. J. DeFrees and J. A. Pople, J. Chem. Phys. 77, 3654 (1982).
   K - Zn      : V. A. Rassolov, J. A. Pople, M. A. Ratner, and T. L. Windus, J. Chem. Phys. 109, 1223 (1998).

================================================================================
                                        WARNINGS
                       Please study these warnings very carefully!
================================================================================


WARNING: Geometry Optimization
  ===> : Switching off AutoStart
         For restart on a previous wavefunction, please use MOREAD

INFO   : the flag for use of LIBINT has been found!

================================================================================
                                       INPUT FILE
================================================================================
NAME = project_8050/ensemble_165_195.inp
|  1> # Test redundant internal optimization
|  2> #
|  3> ! RKS B3LYP  Opt TightSCF SmallPrint
|  4> 
|  5> %basis
|  6>         Basis "6-31G"
|  7> end
|  8> 
|  9> %geom
| 10> Constraints
| 11> { D 4  0  15  12  165.0   C } # D for Dihedral angle
| 12> { D 0  15  12  16  195.0   C } # D for Dihedral angle
| 13> { D 0  4  3  2   C } # D for Dihedral angle
| 14> { D 4  3  2  1   C } # D for Dihedral angle
| 15> { D 3  2  1  0   C } # D for Dihedral angle
| 16> { D 2  1  0  4   C } # D for Dihedral angle
| 17> { D 1  0  4  3   C } # D for Dihedral angle
| 18> { D 16  20  19  18   C } # D for Dihedral angle
| 19> { D 20  19  18  17   C } # D for Dihedral angle
| 20> { D 19  18  17  16   C } # D for Dihedral angle
| 21> { D 18  17  16  20   C } # D for Dihedral angle
| 22> { D 17  16  20  19   C } # D for Dihedral angle
| 23> { D 15  12  16  20   C } # D for Dihedral angle
| 24> end
| 25> end
| 26> 
| 27> 
| 28> #%pal 
| 29> #nprocs 8
| 30> #end
| 31> 
| 32> * xyz 0 1
| 33> C  -21.048   26.222   46.251
| 34> C  -20.361   27.558   45.944
| 35> C  -20.329   28.222   47.341
| 36> C  -20.110   27.022   48.296
| 37> O  -20.473   25.807   47.535
| 38> H  -20.833   25.428   45.533
| 39> H  -19.344   27.382   45.576
| 40> H  -20.898   28.157   45.201
| 41> H  -19.543   28.978   47.434
| 42> H  -21.289   28.710   47.548
| 43> H  -20.733   27.082   49.195
| 44> H  -19.064   26.913   48.597
| 45> C  -23.260   27.170   45.210
| 46> H  -22.660   28.057   44.972
| 47> H  -23.315   26.542   44.312
| 48> O  -22.586   26.394   46.375
| 49> C  -24.703   27.633   45.553
| 50> C  -24.703   28.653   46.697
| 51> C  -24.296   29.952   45.960
| 52> C  -24.970   29.794   44.573
| 53> O  -25.290   28.359   44.422
| 54> H  -25.328   26.756   45.729
| 55> O  -26.132   28.785   47.292
| 56> H  -24.015   28.392   47.508
| 57> H  -24.622   30.856   46.482
| 58> H  -23.205   29.999   45.856
| 59> H  -24.317   30.105   43.752
| 60> H  -25.912   30.344   44.503
| 61> H  -26.839   29.049   46.497
| 62> *
| 63> 
| 64>                          ****END OF INPUT****
================================================================================

                       *****************************
                       * Geometry Optimization Run *
                       *****************************

Geometry optimization settings:
Update method            Update   .... BFGS
Choice of coordinates    CoordSys .... Z-matrix Internals
Initial Hessian          InHess   .... Almoef's Model

Convergence Tolerances:
Energy Change            TolE     ....  5.0000e-06 Eh
Max. Gradient            TolMAXG  ....  3.0000e-04 Eh/bohr
RMS Gradient             TolRMSG  ....  1.0000e-04 Eh/bohr
Max. Displacement        TolMAXD  ....  4.0000e-03 bohr
RMS Displacement         TolRMSD  ....  2.0000e-03 bohr
Strict Convergence                ....  False
------------------------------------------------------------------------------
                        ORCA OPTIMIZATION COORDINATE SETUP
------------------------------------------------------------------------------

The optimization will be done in new redundant internal coordinates
Making redundant internal coordinates   ...  (new redundants) done
Evaluating the initial hessian          ...  (Almloef) done
Evaluating the coordinates              ...  done
Calculating the B-matrix                .... done
Calculating the G-matrix                .... done
Diagonalizing the G-matrix              .... done
Imposing constraints:
 Iter   0:  RMS(Cart)=    0.0000730786 RMS(Int)=    0.0000293901
 Iter   1:  RMS(Cart)=    0.0000389762 RMS(Int)=    0.0000160098
 Iter   2:  RMS(Cart)=    0.0000210663 RMS(Int)=    0.0000093588
 Iter   3:  RMS(Cart)=    0.0000116141 RMS(Int)=    0.0000062779
 Iter   4:  RMS(Cart)=    0.0000066022 RMS(Int)=    0.0000049873
 Iter   5:  RMS(Cart)=    0.0000039350 RMS(Int)=    0.0000044600
 Iter   6:  RMS(Cart)=    0.0000025138 RMS(Int)=    0.0000042071
 Iter   7:  RMS(Cart)=    0.0000017570 RMS(Int)=    0.0000040453
 Iter   8:  RMS(Cart)=    0.0000013519 RMS(Int)=    0.0000039148
 Iter   9:  RMS(Cart)=    0.0000011299 RMS(Int)=    0.0000037966
 Iter  10:  RMS(Cart)=    0.0000010017 RMS(Int)=    0.0000036849
 Iter  11:  RMS(Cart)=    0.0000009217 RMS(Int)=    0.0000035776
 Iter  12:  RMS(Cart)=    0.0000008669 RMS(Int)=    0.0000034740
 Iter  13:  RMS(Cart)=    0.0000008257 RMS(Int)=    0.0000033737
 Iter  14:  RMS(Cart)=    0.0000007922 RMS(Int)=    0.0000032768
 Iter  15:  RMS(Cart)=    0.0000007632 RMS(Int)=    0.0000031829
 Iter  16:  RMS(Cart)=    0.0000007372 RMS(Int)=    0.0000030919
 Iter  17:  RMS(Cart)=    0.0000007131 RMS(Int)=    0.0000030039
 Iter  18:  RMS(Cart)=    0.0000006904 RMS(Int)=    0.0000029186
 Iter  19:  RMS(Cart)=    0.0000006688 RMS(Int)=    0.0000028360
 Iter  20:  RMS(Cart)=    0.0000006482 RMS(Int)=    0.0000027559
 Iter  21:  RMS(Cart)=    0.0000006283 RMS(Int)=    0.0000026784
 Iter  22:  RMS(Cart)=    0.0000006091 RMS(Int)=    0.0000026033
 Iter  23:  RMS(Cart)=    0.0000005907 RMS(Int)=    0.0000025305
 Iter  24:  RMS(Cart)=    0.0000005728 RMS(Int)=    0.0000024600
 Iter  25:  RMS(Cart)=    0.0000005555 RMS(Int)=    0.0000023917
 Iter  26:  RMS(Cart)=    0.0000005388 RMS(Int)=    0.0000023254
 Iter  27:  RMS(Cart)=    0.0000005227 RMS(Int)=    0.0000022613
 Iter  28:  RMS(Cart)=    0.0000005070 RMS(Int)=    0.0000021990
 Iter  29:  RMS(Cart)=    0.0000004919 RMS(Int)=    0.0000021387
 Iter  30:  RMS(Cart)=    0.0000004772 RMS(Int)=    0.0000020803
 Iter  31:  RMS(Cart)=    0.0000004630 RMS(Int)=    0.0000020236
 Iter  32:  RMS(Cart)=    0.0000004493 RMS(Int)=    0.0000019687
 Iter  33:  RMS(Cart)=    0.0000004360 RMS(Int)=    0.0000019154
 Iter  34:  RMS(Cart)=    0.0000004231 RMS(Int)=    0.0000018638
 Iter  35:  RMS(Cart)=    0.0000004106 RMS(Int)=    0.0000018137
 Iter  36:  RMS(Cart)=    0.0000003985 RMS(Int)=    0.0000017651
 Iter  37:  RMS(Cart)=    0.0000003868 RMS(Int)=    0.0000017180
 Iter  38:  RMS(Cart)=    0.0000003755 RMS(Int)=    0.0000016723
 Iter  39:  RMS(Cart)=    0.0000003645 RMS(Int)=    0.0000016280
 Iter  40:  RMS(Cart)=    0.0000003538 RMS(Int)=    0.0000015850
 Iter  41:  RMS(Cart)=    0.0000003435 RMS(Int)=    0.0000015433
 Iter  42:  RMS(Cart)=    0.0000003335 RMS(Int)=    0.0000015028
 Iter  43:  RMS(Cart)=    0.0000003238 RMS(Int)=    0.0000014636
 Iter  44:  RMS(Cart)=    0.0000003144 RMS(Int)=    0.0000014255
 Iter  45:  RMS(Cart)=    0.0000003053 RMS(Int)=    0.0000013885
 Iter  46:  RMS(Cart)=    0.0000002965 RMS(Int)=    0.0000013527
 Iter  47:  RMS(Cart)=    0.0000002880 RMS(Int)=    0.0000013179
 Iter  48:  RMS(Cart)=    0.0000002797 RMS(Int)=    0.0000012841
 Iter  49:  RMS(Cart)=    0.0000002716 RMS(Int)=    0.0000012513
 Iter  50:  RMS(Cart)=    0.0000002639 RMS(Int)=    0.0000012195
 Iter  51:  RMS(Cart)=    0.0000002563 RMS(Int)=    0.0000011886
 Iter  52:  RMS(Cart)=    0.0000002490 RMS(Int)=    0.0000011586
 Iter  53:  RMS(Cart)=    0.0000002419 RMS(Int)=    0.0000011295
 Iter  54:  RMS(Cart)=    0.0000002350 RMS(Int)=    0.0000011012
 Iter  55:  RMS(Cart)=    0.0000002284 RMS(Int)=    0.0000010738
 Iter  56:  RMS(Cart)=    0.0000002219 RMS(Int)=    0.0000010472
 Iter  57:  RMS(Cart)=    0.0000002156 RMS(Int)=    0.0000010213
 Iter  58:  RMS(Cart)=    0.0000002095 RMS(Int)=    0.0000009962
 Iter  59:  RMS(Cart)=    0.0000002037 RMS(Int)=    0.0000009718
 Iter  60:  RMS(Cart)=    0.0000001979 RMS(Int)=    0.0000009481
 Iter  61:  RMS(Cart)=    0.0000001924 RMS(Int)=    0.0000009250
 Iter  62:  RMS(Cart)=    0.0000001870 RMS(Int)=    0.0000009027
 Iter  63:  RMS(Cart)=    0.0000001818 RMS(Int)=    0.0000008810
 Iter  64:  RMS(Cart)=    0.0000001767 RMS(Int)=    0.0000008599
 Iter  65:  RMS(Cart)=    0.0000001718 RMS(Int)=    0.0000008394
 Iter  66:  RMS(Cart)=    0.0000001671 RMS(Int)=    0.0000008194
 Iter  67:  RMS(Cart)=    0.0000001624 RMS(Int)=    0.0000008001
 Iter  68:  RMS(Cart)=    0.0000001580 RMS(Int)=    0.0000007813
 Iter  69:  RMS(Cart)=    0.0000001536 RMS(Int)=    0.0000007630
 Iter  70:  RMS(Cart)=    0.0000001494 RMS(Int)=    0.0000007452
 Iter  71:  RMS(Cart)=    0.0000001453 RMS(Int)=    0.0000007280
 Iter  72:  RMS(Cart)=    0.0000001413 RMS(Int)=    0.0000007112
 Iter  73:  RMS(Cart)=    0.0000001375 RMS(Int)=    0.0000006949
 Iter  74:  RMS(Cart)=    0.0000001337 RMS(Int)=    0.0000006790
 Iter  75:  RMS(Cart)=    0.0000001301 RMS(Int)=    0.0000006636
 Iter  76:  RMS(Cart)=    0.0000001265 RMS(Int)=    0.0000006486
 Iter  77:  RMS(Cart)=    0.0000001231 RMS(Int)=    0.0000006341
 Iter  78:  RMS(Cart)=    0.0000001198 RMS(Int)=    0.0000006199
 Iter  79:  RMS(Cart)=    0.0000001166 RMS(Int)=    0.0000006061
 Iter  80:  RMS(Cart)=    0.0000001134 RMS(Int)=    0.0000005927
 Iter  81:  RMS(Cart)=    0.0000001104 RMS(Int)=    0.0000005797
 Iter  82:  RMS(Cart)=    0.0000001074 RMS(Int)=    0.0000005670
 Iter  83:  RMS(Cart)=    0.0000001046 RMS(Int)=    0.0000005547
 Iter  84:  RMS(Cart)=    0.0000001018 RMS(Int)=    0.0000005427
 Iter  85:  RMS(Cart)=    0.0000000991 RMS(Int)=    0.0000005310
 Iter  86:  RMS(Cart)=    0.0000000965 RMS(Int)=    0.0000005197
 Iter  87:  RMS(Cart)=    0.0000000939 RMS(Int)=    0.0000005086
 Iter  88:  RMS(Cart)=    0.0000000914 RMS(Int)=    0.0000004979
 Iter  89:  RMS(Cart)=    0.0000000890 RMS(Int)=    0.0000004874
 Iter  90:  RMS(Cart)=    0.0000000867 RMS(Int)=    0.0000004772
 Iter  91:  RMS(Cart)=    0.0000000844 RMS(Int)=    0.0000004673
 Iter  92:  RMS(Cart)=    0.0000000822 RMS(Int)=    0.0000004577
 Iter  93:  RMS(Cart)=    0.0000000801 RMS(Int)=    0.0000004483
 Iter  94:  RMS(Cart)=    0.0000000780 RMS(Int)=    0.0000004391
 Iter  95:  RMS(Cart)=    0.0000000760 RMS(Int)=    0.0000004302
 Iter  96:  RMS(Cart)=    0.0000000740 RMS(Int)=    0.0000004215
 Iter  97:  RMS(Cart)=    0.0000000721 RMS(Int)=    0.0000004131
 Iter  98:  RMS(Cart)=    0.0000000703 RMS(Int)=    0.0000004049
 Iter  99:  RMS(Cart)=    0.0000000685 RMS(Int)=    0.0000003968
 RMS(Cart) too big - taking linear step, building new B-matrix and trying again
Imposing constraints:
 Iter   0:  RMS(Cart)=    0.0000389764 RMS(Int)=    0.0000160097
 Iter   1:  RMS(Cart)=    0.0000210663 RMS(Int)=    0.0000093587
 Iter   2:  RMS(Cart)=    0.0000116140 RMS(Int)=    0.0000062778
 Iter   3:  RMS(Cart)=    0.0000066021 RMS(Int)=    0.0000049872
 Iter   4:  RMS(Cart)=    0.0000039349 RMS(Int)=    0.0000044600
 Iter   5:  RMS(Cart)=    0.0000025138 RMS(Int)=    0.0000042070
 Iter   6:  RMS(Cart)=    0.0000017569 RMS(Int)=    0.0000040453
 Iter   7:  RMS(Cart)=    0.0000013519 RMS(Int)=    0.0000039148
 Iter   8:  RMS(Cart)=    0.0000011299 RMS(Int)=    0.0000037966
 Iter   9:  RMS(Cart)=    0.0000010017 RMS(Int)=    0.0000036849
 Iter  10:  RMS(Cart)=    0.0000009217 RMS(Int)=    0.0000035776
 Iter  11:  RMS(Cart)=    0.0000008668 RMS(Int)=    0.0000034740
 Iter  12:  RMS(Cart)=    0.0000008256 RMS(Int)=    0.0000033737
 Iter  13:  RMS(Cart)=    0.0000007922 RMS(Int)=    0.0000032768
 Iter  14:  RMS(Cart)=    0.0000007632 RMS(Int)=    0.0000031829
 Iter  15:  RMS(Cart)=    0.0000007372 RMS(Int)=    0.0000030919
 Iter  16:  RMS(Cart)=    0.0000007131 RMS(Int)=    0.0000030039
 Iter  17:  RMS(Cart)=    0.0000006904 RMS(Int)=    0.0000029186
 Iter  18:  RMS(Cart)=    0.0000006688 RMS(Int)=    0.0000028360
 Iter  19:  RMS(Cart)=    0.0000006481 RMS(Int)=    0.0000027560
 Iter  20:  RMS(Cart)=    0.0000006283 RMS(Int)=    0.0000026784
 Iter  21:  RMS(Cart)=    0.0000006091 RMS(Int)=    0.0000026033
 Iter  22:  RMS(Cart)=    0.0000005907 RMS(Int)=    0.0000025305
 Iter  23:  RMS(Cart)=    0.0000005728 RMS(Int)=    0.0000024600
 Iter  24:  RMS(Cart)=    0.0000005555 RMS(Int)=    0.0000023917
 Iter  25:  RMS(Cart)=    0.0000005388 RMS(Int)=    0.0000023255
 Iter  26:  RMS(Cart)=    0.0000005227 RMS(Int)=    0.0000022613
 Iter  27:  RMS(Cart)=    0.0000005070 RMS(Int)=    0.0000021991
 Iter  28:  RMS(Cart)=    0.0000004919 RMS(Int)=    0.0000021388
 Iter  29:  RMS(Cart)=    0.0000004772 RMS(Int)=    0.0000020803
 Iter  30:  RMS(Cart)=    0.0000004630 RMS(Int)=    0.0000020237
 Iter  31:  RMS(Cart)=    0.0000004493 RMS(Int)=    0.0000019687
 Iter  32:  RMS(Cart)=    0.0000004360 RMS(Int)=    0.0000019154
 Iter  33:  RMS(Cart)=    0.0000004231 RMS(Int)=    0.0000018638
 Iter  34:  RMS(Cart)=    0.0000004106 RMS(Int)=    0.0000018137
 Iter  35:  RMS(Cart)=    0.0000003985 RMS(Int)=    0.0000017651
 Iter  36:  RMS(Cart)=    0.0000003868 RMS(Int)=    0.0000017180
 Iter  37:  RMS(Cart)=    0.0000003755 RMS(Int)=    0.0000016723
 Iter  38:  RMS(Cart)=    0.0000003645 RMS(Int)=    0.0000016280
 Iter  39:  RMS(Cart)=    0.0000003538 RMS(Int)=    0.0000015850
 Iter  40:  RMS(Cart)=    0.0000003435 RMS(Int)=    0.0000015433
 Iter  41:  RMS(Cart)=    0.0000003335 RMS(Int)=    0.0000015029
 Iter  42:  RMS(Cart)=    0.0000003238 RMS(Int)=    0.0000014636
 Iter  43:  RMS(Cart)=    0.0000003144 RMS(Int)=    0.0000014255
 Iter  44:  RMS(Cart)=    0.0000003053 RMS(Int)=    0.0000013886
 Iter  45:  RMS(Cart)=    0.0000002965 RMS(Int)=    0.0000013527
 Iter  46:  RMS(Cart)=    0.0000002880 RMS(Int)=    0.0000013179
 Iter  47:  RMS(Cart)=    0.0000002797 RMS(Int)=    0.0000012841
 Iter  48:  RMS(Cart)=    0.0000002716 RMS(Int)=    0.0000012514
 Iter  49:  RMS(Cart)=    0.0000002639 RMS(Int)=    0.0000012195
 Iter  50:  RMS(Cart)=    0.0000002563 RMS(Int)=    0.0000011886
 Iter  51:  RMS(Cart)=    0.0000002490 RMS(Int)=    0.0000011587
 Iter  52:  RMS(Cart)=    0.0000002419 RMS(Int)=    0.0000011296
 Iter  53:  RMS(Cart)=    0.0000002350 RMS(Int)=    0.0000011013
 Iter  54:  RMS(Cart)=    0.0000002284 RMS(Int)=    0.0000010738
 Iter  55:  RMS(Cart)=    0.0000002219 RMS(Int)=    0.0000010472
 Iter  56:  RMS(Cart)=    0.0000002156 RMS(Int)=    0.0000010213
 Iter  57:  RMS(Cart)=    0.0000002095 RMS(Int)=    0.0000009962
CONVERGED
Small eigenvalue found = 7.833e-03
Small eigenvalue found = 8.829e-03
Small eigenvalue found = 1.597e-02
The first mode is                       ....   91
The number of degrees of freedom        ....   81
Storing new coordinates                 .... done

    -----------------------------------------------------------------
                    Redundant Internal Coordinates


    -----------------------------------------------------------------
         Definition                    Initial Value    Approx d2E/dq
    -----------------------------------------------------------------
      1. B(C   1,C   0)                  1.5333         0.369027   
      2. B(C   2,C   1)                  1.5471         0.350825   
      3. B(C   3,C   2)                  1.5492         0.348147   
      4. B(O   4,C   0)                  1.4668         0.422031   
      5. B(O   4,C   3)                  1.4789         0.403699   
      6. B(H   5,C   0)                  1.0919         0.357632   
      7. B(H   6,C   1)                  1.0958         0.352561   
      8. B(H   7,C   1)                  1.0951         0.353431   
      9. B(H   8,C   2)                  1.0945         0.354166   
     10. B(H   9,C   2)                  1.0966         0.351438   
     11. B(H  10,C   3)                  1.0954         0.353010   
     12. B(H  11,C   3)                  1.0939         0.354989   
     13. B(H  13,C  12)                  1.0970         0.350956   
     14. B(H  14,C  12)                  1.0972         0.350721   
     15. B(O  15,C   0)                  1.5525         0.307993   
     16. B(O  15,C  12)                  1.5536         0.306803   
     17. B(C  16,C  12)                  1.5538         0.342310   
     18. B(C  17,C  16)                  1.5327         0.369902   
     19. B(C  18,C  17)                  1.5480         0.349706   
     20. B(C  19,C  18)                  1.5502         0.346902   
     21. B(O  20,C  16)                  1.4666         0.422401   
     22. B(O  20,C  19)                  1.4780         0.405050   
     23. B(H  21,C  16)                  1.0912         0.358508   
     24. B(O  22,C  17)                  1.5535         0.306871   
     25. B(H  23,C  17)                  1.0951         0.353451   
     26. B(H  24,C  18)                  1.0936         0.355360   
     27. B(H  25,C  18)                  1.0970         0.351018   
     28. B(H  26,C  19)                  1.0942         0.354648   
     29. B(H  27,C  19)                  1.0931         0.356084   
     30. B(H  28,O  22)                  1.0962         0.315304   
     31. A(O   4,C   0,H   5)          107.0225         0.328541   
     32. A(C   1,C   0,O  15)          111.3011         0.348740   
     33. A(C   1,C   0,O   4)          104.2482         0.367935   
     34. A(O   4,C   0,O  15)          110.4737         0.354548   
     35. A(C   1,C   0,H   5)          114.4370         0.323302   
     36. A(H   5,C   0,O  15)          109.1584         0.312058   
     37. A(C   0,C   1,C   2)          101.6798         0.358729   
     38. A(C   2,C   1,H   7)          112.8316         0.320016   
     39. A(C   2,C   1,H   6)          110.6710         0.319888   
     40. A(C   0,C   1,H   6)          110.0676         0.322546   
     41. A(H   6,C   1,H   7)          108.3682         0.289027   
     42. A(C   0,C   1,H   7)          113.1242         0.322677   
     43. A(C   1,C   2,H   8)          112.8319         0.320125   
     44. A(C   1,C   2,C   3)          103.1263         0.355196   
     45. A(C   1,C   2,H   9)          110.0801         0.319721   
     46. A(C   3,C   2,H   9)          110.6153         0.319321   
     47. A(C   3,C   2,H   8)          112.4040         0.319725   
     48. A(H   8,C   2,H   9)          107.7727         0.288977   
     49. A(O   4,C   3,H  10)          109.1297         0.325449   
     50. A(C   2,C   3,H  10)          112.5253         0.319554   
     51. A(C   2,C   3,O   4)          106.5278         0.361529   
     52. A(O   4,C   3,H  11)          107.1236         0.325748   
     53. A(H  10,C   3,H  11)          108.8728         0.289284   
     54. A(C   2,C   3,H  11)          112.4566         0.319846   
     55. A(C   0,O   4,C   3)          108.3150         0.371320   
     56. A(H  14,C  12,C  16)          107.7383         0.318335   
     57. A(H  13,C  12,H  14)          108.2191         0.288473   
     58. A(H  13,C  12,O  15)          109.2246         0.310914   
     59. A(H  14,C  12,O  15)          110.4625         0.310880   
     60. A(O  15,C  12,C  16)          112.7182         0.344136   
     61. A(H  13,C  12,C  16)          108.3553         0.318370   
     62. A(C   0,O  15,C  12)          115.1640         0.336058   
     63. A(C  12,C  16,C  17)          111.2890         0.357377   
     64. A(C  12,C  16,O  20)          110.4253         0.363285   
     65. A(C  17,C  16,O  20)          104.2511         0.368140   
     66. A(C  12,C  16,H  21)          109.1498         0.319478   
     67. A(C  17,C  16,H  21)          114.4861         0.323558   
     68. A(O  20,C  16,H  21)          107.0373         0.328722   
     69. A(C  16,C  17,C  18)          101.7179         0.358678   
     70. A(C  16,C  17,O  22)          110.0240         0.348665   
     71. A(C  18,C  17,O  22)          110.6644         0.345386   
     72. A(C  16,C  17,H  23)          113.2137         0.322805   
     73. A(C  18,C  17,H  23)          112.7939         0.319852   
     74. A(O  22,C  17,H  23)          108.3313         0.311281   
     75. A(C  17,C  18,C  19)          103.0702         0.354788   
     76. A(C  17,C  18,H  24)          112.8325         0.320134   
     77. A(C  19,C  18,H  24)          112.4404         0.319713   
     78. A(C  17,C  18,H  25)          110.0348         0.319492   
     79. A(C  19,C  18,H  25)          110.6079         0.319072   
     80. A(H  24,C  18,H  25)          107.8373         0.289075   
     81. A(C  18,C  19,O  20)          106.5296         0.361514   
     82. A(C  18,C  19,H  26)          112.5143         0.319609   
     83. A(O  20,C  19,H  26)          109.1794         0.325875   
     84. A(C  18,C  19,H  27)          112.3784         0.319820   
     85. A(O  20,C  19,H  27)          107.1822         0.326092   
     86. A(H  26,C  19,H  27)          108.8601         0.289634   
     87. A(C  16,O  20,C  19)          108.3723         0.371590   
     88. A(C  17,O  22,H  28)          109.6312         0.303085   
     89. D(H   7,C   1,C   0,H   5)     82.1514         0.010890   
     90. D(C   2,C   1,C   0,O  15)     79.0864         0.010890   
     91. D(H   7,C   1,C   0,O  15)    -42.1870         0.010890   
     92. D(H   6,C   1,C   0,O   4)     77.3262         0.010890   
     93. D(H   6,C   1,C   0,O  15)   -163.5728         0.010890   
     94. D(H   6,C   1,C   0,H   5)    -39.2344         0.010890   
     95. D(H   7,C   1,C   0,O   4)   -161.2880         0.010890   
     96. D(C   2,C   1,C   0,O   4)    -40.0145         0.010890 C 
     97. D(C   2,C   1,C   0,H   5)   -156.5752         0.010890   
     98. D(H   9,C   2,C   1,H   6)    160.0776         0.009912   
     99. D(H   8,C   2,C   1,C   0)    156.5479         0.009912   
    100. D(H   8,C   2,C   1,H   6)     39.6445         0.009912   
    101. D(C   3,C   2,C   1,C   0)     35.0270         0.009912 C 
    102. D(H   8,C   2,C   1,H   7)    -81.9753         0.009912   
    103. D(H   9,C   2,C   1,C   0)    -83.0191         0.009912   
    104. D(C   3,C   2,C   1,H   6)    -81.8763         0.009912   
    105. D(H   9,C   2,C   1,H   7)     38.4578         0.009912   
    106. D(C   3,C   2,C   1,H   7)    156.5039         0.009912   
    107. D(H  11,C   3,C   2,H   9)   -143.4628         0.009774   
    108. D(O   4,C   3,C   2,H   8)   -140.0066         0.009774   
    109. D(O   4,C   3,C   2,H   9)     99.4739         0.009774   
    110. D(H  10,C   3,C   2,C   1)   -137.7433         0.009774   
    111. D(H  10,C   3,C   2,H   8)    100.4468         0.009774   
    112. D(H  10,C   3,C   2,H   9)    -20.0727         0.009774   
    113. D(H  11,C   3,C   2,C   1)     98.8667         0.009774   
    114. D(O   4,C   3,C   2,C   1)    -18.1967         0.009774 C 
    115. D(H  11,C   3,C   2,H   8)    -22.9433         0.009774   
    116. D(C   3,O   4,C   0,C   1)     29.5918         0.014035 C 
    117. D(C   3,O   4,C   0,H   5)    151.2010         0.014035   
    118. D(C   3,O   4,C   0,O  15)    -90.0700         0.014035   
    119. D(C   0,O   4,C   3,C   2)     -6.8732         0.012866 C 
    120. D(C   0,O   4,C   3,H  10)    114.8547         0.012866   
    121. D(C   0,O   4,C   3,H  11)   -127.4272         0.012866   
    122. D(C   0,O  15,C  12,C  16)   -165.0000         0.007741 C 
    123. D(C  12,O  15,C   0,O   4)    165.0000         0.007793 C 
    124. D(C  12,O  15,C   0,H   5)    -77.5792         0.007793   
    125. D(C   0,O  15,C  12,H  14)     74.4182         0.007741   
    126. D(C   0,O  15,C  12,H  13)    -44.4985         0.007741   
    127. D(C  12,O  15,C   0,C   1)     49.6874         0.007793   
    128. D(C  17,C  16,C  12,H  13)    -56.3145         0.009476   
    129. D(H  21,C  16,C  12,H  14)     59.4994         0.009476   
    130. D(C  17,C  16,C  12,O  15)     64.6841         0.009476   
    131. D(O  20,C  16,C  12,H  13)     58.9652         0.009476   
    132. D(O  20,C  16,C  12,H  14)    -57.9060         0.009476   
    133. D(O  20,C  16,C  12,O  15)    179.9638         0.009476 C 
    134. D(C  17,C  16,C  12,H  14)   -173.1857         0.009476   
    135. D(H  21,C  16,C  12,H  13)    176.3706         0.009476   
    136. D(H  21,C  16,C  12,O  15)    -62.6308         0.009476   
    137. D(C  18,C  17,C  16,C  12)     79.0717         0.010938   
    138. D(C  18,C  17,C  16,O  20)    -39.9674         0.010938 C 
    139. D(C  18,C  17,C  16,H  21)   -156.5730         0.010938   
    140. D(O  22,C  17,C  16,C  12)   -163.5938         0.010938   
    141. D(O  22,C  17,C  16,O  20)     77.3670         0.010938   
    142. D(O  22,C  17,C  16,H  21)    -39.2385         0.010938   
    143. D(H  23,C  17,C  16,C  12)    -42.2254         0.010938   
    144. D(H  23,C  17,C  16,O  20)   -161.2646         0.010938   
    145. D(H  23,C  17,C  16,H  21)     82.1299         0.010938   
    146. D(H  24,C  18,C  17,H  23)    -81.9129         0.009854   
    147. D(C  19,C  18,C  17,O  22)    -81.9014         0.009854   
    148. D(C  19,C  18,C  17,H  23)    156.5577         0.009854   
    149. D(H  24,C  18,C  17,C  16)    156.4985         0.009854   
    150. D(C  19,C  18,C  17,C  16)     34.9691         0.009854 C 
    151. D(H  24,C  18,C  17,O  22)     39.6280         0.009854   
    152. D(H  25,C  18,C  17,C  16)    -83.0175         0.009854   
    153. D(H  25,C  18,C  17,O  22)    160.1120         0.009854   
    154. D(H  25,C  18,C  17,H  23)     38.5711         0.009854   
    155. D(H  27,C  19,C  18,H  25)   -143.4713         0.009710   
    156. D(O  20,C  19,C  18,H  24)   -139.9425         0.009710   
    157. D(O  20,C  19,C  18,H  25)     99.4358         0.009710   
    158. D(H  26,C  19,C  18,C  17)   -137.7504         0.009710   
    159. D(H  26,C  19,C  18,H  24)    100.4550         0.009710   
    160. D(H  26,C  19,C  18,H  25)    -20.1666         0.009710   
    161. D(H  27,C  19,C  18,C  17)     98.9449         0.009710   
    162. D(O  20,C  19,C  18,C  17)    -18.1480         0.009710 C 
    163. D(H  27,C  19,C  18,H  24)    -22.8497         0.009710   
    164. D(C  19,O  20,C  16,C  12)    -90.0514         0.014060   
    165. D(C  19,O  20,C  16,C  17)     29.5734         0.014060 C 
    166. D(C  19,O  20,C  16,H  21)    151.2479         0.014060   
    167. D(C  16,O  20,C  19,C  18)     -6.8755         0.012950 C 
    168. D(C  16,O  20,C  19,H  26)    114.8684         0.012950   
    169. D(C  16,O  20,C  19,H  27)   -127.3697         0.012950   
    170. D(H  28,O  22,C  17,C  16)    -55.9029         0.007744   
    171. D(H  28,O  22,C  17,C  18)     55.7189         0.007744   
    172. D(H  28,O  22,C  17,H  23)    179.8545         0.007744   
    -----------------------------------------------------------------

Number of atoms                         .... 29
Number of degrees of freedom            .... 172

         *************************************************************
         *                GEOMETRY OPTIMIZATION CYCLE   1            *
         *************************************************************
---------------------------------
CARTESIAN COORDINATES (ANGSTROEM)
---------------------------------
  C    -21.048016   26.221891   46.251038
  C    -20.361044   27.557890   45.943920
  C    -20.329097   28.222054   47.340852
  C    -20.110083   27.022153   48.295970
  O    -20.473025   25.807071   47.535094
  H    -20.832972   25.427853   45.533094
  H    -19.344033   27.381878   45.575957
  H    -20.898048   28.156799   45.200850
  H    -19.543123   28.978088   47.433790
  H    -21.289115   28.710048   47.547780
  H    -20.733103   27.082222   49.194951
  H    -19.064085   26.913215   48.597002
  C    -23.259953   27.170004   45.210007
  H    -22.659926   28.057007   44.972086
  H    -23.314926   26.542059   44.311967
  O    -22.586016   26.393923   46.374990
  C    -24.702964   27.632998   45.552968
  C    -24.703006   28.652927   46.697032
  C    -24.295957   29.951968   45.960132
  C    -24.969894   29.794062   44.573090
  O    -25.289903   28.359075   44.421986
  H    -25.327982   26.755994   45.728885
  O    -26.132032   28.784906   47.291973
  H    -24.015046   28.391869   47.508047
  H    -24.621971   30.855939   46.482173
  H    -23.204951   29.998963   45.856185
  H    -24.316853   30.105106   43.752140
  H    -25.911885   30.344077   44.503081
  H    -26.838992   29.048963   46.496957

----------------------------
CARTESIAN COORDINATES (A.U.)
----------------------------
  NO LB      ZA    FRAG     MASS         X           Y           Z
   0 C     6.0000    0    12.011  -39.774985   49.552193   87.401796
   1 C     6.0000    0    12.011  -38.476797   52.076864   86.821427
   2 C     6.0000    0    12.011  -38.416426   53.331952   89.461245
   3 C     6.0000    0    12.011  -38.002548   51.064468   91.266157
   4 O     8.0000    0    15.999  -38.688411   48.768296   89.828310
   5 H     1.0000    0     1.008  -39.368611   48.051678   86.045077
   6 H     1.0000    0     1.008  -36.554924   51.744251   86.126077
   7 H     1.0000    0     1.008  -39.491588   53.208639   85.417228
   8 H     1.0000    0     1.008  -36.931150   54.760651   89.636873
   9 H     1.0000    0     1.008  -40.230598   54.254127   89.852282
  10 H     1.0000    0     1.008  -39.179887   51.177983   92.964985
  11 H     1.0000    0     1.008  -36.025900   50.858605   91.835025
  12 C     6.0000    0    12.011  -43.954941   51.343866   85.434532
  13 H     1.0000    0     1.008  -42.821054   53.020059   84.984927
  14 H     1.0000    0     1.008  -44.058826   50.157223   83.737481
  15 O     8.0000    0    15.999  -42.681385   49.877287   87.636031
  16 C     6.0000    0    12.011  -46.681837   52.218798   86.082634
  17 C     6.0000    0    12.011  -46.681915   54.146185   88.244601
  18 C     6.0000    0    12.011  -45.912704   56.601017   86.852062
  19 C     6.0000    0    12.011  -47.186262   56.302617   84.230934
  20 O     8.0000    0    15.999  -47.790991   53.590885   83.945389
  21 H     1.0000    0     1.008  -47.862949   50.561501   86.415070
  22 O     8.0000    0    15.999  -49.382384   54.395588   89.368878
  23 H     1.0000    0     1.008  -45.381860   53.652856   89.777199
  24 H     1.0000    0     1.008  -46.528782   58.309275   87.838576
  25 H     1.0000    0     1.008  -43.851003   56.689824   86.655631
  26 H     1.0000    0     1.008  -45.952192   56.890405   82.679563
  27 H     1.0000    0     1.008  -48.966366   57.341995   84.098635
  28 H     1.0000    0     1.008  -50.718345   54.894584   87.866515

--------------------------------
INTERNAL COORDINATES (ANGSTROEM)
--------------------------------
 C      0   0   0     0.000000000000     0.00000000     0.00000000
 C      1   0   0     1.533334275362     0.00000000     0.00000000
 C      2   1   0     1.547103422529   101.67907390     0.00000000
 C      3   2   1     1.549188819996   103.12737509    35.02687180
 O      1   2   3     1.466801281701   104.24948604   319.98542309
 H      1   2   3     1.091872245274   114.43876658   203.42640133
 H      2   1   3     1.095759553917   110.06782188   117.34000099
 H      2   1   3     1.095088580892   113.12442239   238.72597460
 H      3   2   1     1.094523183857   112.83161078   156.54780790
 H      3   2   1     1.096628013503   110.07982737   276.98070077
 H      4   3   2     1.095413164062   112.52534669   222.25678475
 H      4   3   2     1.093891219455   112.45670684    98.86663270
 C      8   2   1     2.559940233677   103.83785452    19.06728176
 H     13   8   2     1.097001823153    35.19800368   157.40501711
 H     13   8   2     1.097184123108   105.31093339   257.44005993
 O      1   2   3     1.552547583812   111.30349807    79.08752829
 C     13   8   2     1.553791170010   137.96836093   116.58787727
 C     17  13   8     1.532689140041   111.28907416   327.07395095
 C     18  17  13     1.547972544976   101.71792550    79.07174693
 C     19  18  17     1.550164184853   103.07018886    34.96909589
 O     17  13   8     1.466562647827   110.42531767    82.35369668
 H     17  13   8     1.091205755117   109.14979216   199.75897909
 O     18  17  13     1.553541116289   110.02400443   196.40620809
 H     18  17  13     1.095073513514   113.21370661   317.77462282
 H     19  18  17     1.093606876350   112.83250179   156.49850956
 H     19  18  17     1.096953052778   110.03481973   276.98247960
 H     20  19  18     1.094153097149   112.51430254   222.24959659
 H     20  19  18     1.093052606236   112.37835565    98.94488313
 H     23  18  17     1.096161484454   109.63124664   304.09712427

---------------------------
INTERNAL COORDINATES (A.U.)
---------------------------
 C      0   0   0     0.000000000000     0.00000000     0.00000000
 C      1   0   0     2.897581852189     0.00000000     0.00000000
 C      2   1   0     2.923601769431   101.67907390     0.00000000
 C      3   2   1     2.927542599525   103.12737509    35.02687180
 O      1   2   3     2.771852715300   104.24948604   319.98542309
 H      1   2   3     2.063339516798   114.43876658   203.42640133
 H      2   1   3     2.070685465531   110.06782188   117.34000099
 H      2   1   3     2.069417510270   113.12442239   238.72597460
 H      3   2   1     2.068349064717   112.83161078   156.54780790
 H      3   2   1     2.072326616307   110.07982737   276.98070077
 H      4   3   2     2.070030883569   112.52534669   222.25678475
 H      4   3   2     2.067154825070   112.45670684    98.86663270
 C      8   2   1     4.837585960857   103.83785452    19.06728176
 H     13   8   2     2.073033014171    35.19800368   157.40501711
 H     13   8   2     2.073377511160   105.31093339   257.44005993
 O      1   2   3     2.933889743286   111.30349807    79.08752829
 C     13   8   2     2.936239780623   137.96836093   116.58787727
 C     17  13   8     2.896362723113   111.28907416   327.07395095
 C     18  17  13     2.925244172834   101.71792550    79.07174693
 C     19  18  17     2.929385771985   103.07018886    34.96909589
 O     17  13   8     2.771401762631   110.42531767    82.35369668
 H     17  13   8     2.062080032929   109.14979216   199.75897909
 O     18  17  13     2.935767247572   110.02400443   196.40620809
 H     18  17  13     2.069389037052   113.21370661   317.77462282
 H     19  18  17     2.066617494475   112.83250179   156.49850956
 H     19  18  17     2.072940851520   110.03481973   276.98247960
 H     20  19  18     2.067649702193   112.51430254   222.24959659
 H     20  19  18     2.065570075756   112.37835565    98.94488313
 H     23  18  17     2.071445004170   109.63124664   304.09712427

---------------------
BASIS SET INFORMATION
---------------------
There are 3 groups of distinct atoms

 Group   1 Type C   : 10s4p contracted to 3s2p pattern {631/31}
 Group   2 Type O   : 10s4p contracted to 3s2p pattern {631/31}
 Group   3 Type H   : 4s contracted to 2s pattern {31}

Atom   0C    basis set group =>   1
Atom   1C    basis set group =>   1
Atom   2C    basis set group =>   1
Atom   3C    basis set group =>   1
Atom   4O    basis set group =>   2
Atom   5H    basis set group =>   3
Atom   6H    basis set group =>   3
Atom   7H    basis set group =>   3
Atom   8H    basis set group =>   3
Atom   9H    basis set group =>   3
Atom  10H    basis set group =>   3
Atom  11H    basis set group =>   3
Atom  12C    basis set group =>   1
Atom  13H    basis set group =>   3
Atom  14H    basis set group =>   3
Atom  15O    basis set group =>   2
Atom  16C    basis set group =>   1
Atom  17C    basis set group =>   1
Atom  18C    basis set group =>   1
Atom  19C    basis set group =>   1
Atom  20O    basis set group =>   2
Atom  21H    basis set group =>   3
Atom  22O    basis set group =>   2
Atom  23H    basis set group =>   3
Atom  24H    basis set group =>   3
Atom  25H    basis set group =>   3
Atom  26H    basis set group =>   3
Atom  27H    basis set group =>   3
Atom  28H    basis set group =>   3
------------------------------------------------------------------------------
                           ORCA GTO INTEGRAL CALCULATION
------------------------------------------------------------------------------

                         BASIS SET STATISTICS AND STARTUP INFO

 # of primitive gaussian shells          ...  246
 # of primitive gaussian functions       ...  350
 # of contracted shells                  ...   97
 # of contracted basis functions         ...  149
 Highest angular momentum                ...    1
 Maximum contraction depth               ...    6
 Integral package used                   ... LIBINT
 Integral threshhold            Thresh   ...  2.500e-11
 Primitive cut-off              TCut     ...  2.500e-12


------------------------------ INTEGRAL EVALUATION ----------------------------


 * One electron integrals 
 Pre-screening matrix                    ... done
 Shell pair data                         ... done (   0.002 sec)

-------------------------------------------------------------------------------
                                 ORCA SCF
-------------------------------------------------------------------------------

------------
SCF SETTINGS
------------
Hamiltonian:
 Density Functional     Method          .... DFT(GTOs)
 Exchange Functional    Exchange        .... B88
   X-Alpha parameter    XAlpha          ....  0.666667
   Becke's b parameter  XBeta           ....  0.004200
 Correlation Functional Correlation     .... LYP
 LDA part of GGA corr.  LDAOpt          .... VWN-5
 Gradients option       PostSCFGGA      .... off
 Hybrid DFT is turned on
   Fraction HF Exchange ScalHFX         ....  0.200000
   Scaling of DF-GGA-X  ScalDFX         ....  0.720000
   Scaling of DF-GGA-C  ScalDFC         ....  0.810000
   Scaling of DF-LDA-C  ScalLDAC        ....  1.000000
   Perturbative correction              ....  0.000000
   Density functional embedding theory  .... OFF
   NL short-range parameter             ....  4.800000


General Settings:
 Integral files         IntName         .... project_8050/ensemble_165_195
 Hartree-Fock type      HFTyp           .... RHF
 Total Charge           Charge          ....    0
 Multiplicity           Mult            ....    1
 Number of Electrons    NEL             ....  102
 Basis Dimension        Dim             ....  149
 Nuclear Repulsion      ENuc            ....    867.3229224198 Eh

Convergence Acceleration:
 DIIS                   CNVDIIS         .... on
   Start iteration      DIISMaxIt       ....    12
   Startup error        DIISStart       ....  0.200000
   # of expansion vecs  DIISMaxEq       ....     5
   Bias factor          DIISBfac        ....   1.050
   Max. coefficient     DIISMaxC        ....  10.000
 Newton-Raphson         CNVNR           .... off
 SOSCF                  CNVSOSCF        .... on
   Start iteration      SOSCFMaxIt      ....   150
   Startup grad/error   SOSCFStart      ....  0.003300
 Level Shifting         CNVShift        .... on
   Level shift para.    LevelShift      ....    0.2500
   Turn off err/grad.   ShiftErr        ....    0.0010
 Zerner damping         CNVZerner       .... off
 Static damping         CNVDamp         .... on
   Fraction old density DampFac         ....    0.7000
   Max. Damping (<1)    DampMax         ....    0.9800
   Min. Damping (>=0)   DampMin         ....    0.0000
   Turn off err/grad.   DampErr         ....    0.1000
 Fernandez-Rico         CNVRico         .... off

SCF Procedure:
 Maximum # iterations   MaxIter         ....   125
 SCF integral mode      SCFMode         .... Direct
   Integral package                     .... LIBINT
 Reset frequency        DirectResetFreq ....    20
 Integral Threshold     Thresh          ....  2.500e-11 Eh
 Primitive CutOff       TCut            ....  2.500e-12 Eh

Convergence Tolerance:
 Convergence Check Mode ConvCheckMode   .... Total+1el-Energy
 Convergence forced     ConvForced      .... 0
 Energy Change          TolE            ....  1.000e-08 Eh
 1-El. energy change                    ....  1.000e-05 Eh
 Orbital Gradient       TolG            ....  1.000e-05
 Orbital Rotation angle TolX            ....  1.000e-05
 DIIS Error             TolErr          ....  5.000e-07


Diagonalization of the overlap matrix:
Smallest eigenvalue                        ... 4.171e-03
Time for diagonalization                   ...    0.006 sec
Threshold for overlap eigenvalues          ... 1.000e-08
Number of eigenvalues below threshold      ... 0
Time for construction of square roots      ...    0.120 sec
Total time needed                          ...    0.126 sec

-------------------
DFT GRID GENERATION
-------------------

General Integration Accuracy     IntAcc      ...  4.340
Radial Grid Type                 RadialGrid  ... Gauss-Chebyshev
Angular Grid (max. acc.)         AngularGrid ... Lebedev-110
Angular grid pruning method      GridPruning ... 3 (G Style)
Weight generation scheme         WeightScheme... Becke
Basis function cutoff            BFCut       ...    1.0000e-11
Integration weight cutoff        WCut        ...    1.0000e-14
Grids for H and He will be reduced by one unit

# of grid points (after initial pruning)     ...  34472 (   0.0 sec)
# of grid points (after weights+screening)   ...  30935 (   0.5 sec)
nearest neighbour list constructed           ...    0.0 sec
Grid point re-assignment to atoms done       ...    0.0 sec
Grid point division into batches done        ...    0.0 sec
Reduced shell lists constructed in    0.6 sec

Total number of grid points                  ...    30935
Total number of batches                      ...      494
Average number of points per batch           ...       62
Average number of grid points per atom       ...     1067
Average number of shells per batch           ...    59.87 (61.72%)
Average number of basis functions per batch  ...    96.73 (64.92%)
Average number of large shells per batch     ...    42.31 (70.67%)
Average number of large basis fcns per batch ...    69.80 (72.16%)
Maximum spatial batch extension              ...  19.24, 20.09, 18.53 au
Average spatial batch extension              ...   3.26,  3.35,  3.33 au

Time for grid setup =    1.211 sec

------------------------------
INITIAL GUESS: MODEL POTENTIAL
------------------------------
Loading Hartree-Fock densities                     ... done
Calculating cut-offs                               ... done
Setting up the integral package                    ... done
Initializing the effective Hamiltonian             ... done
Starting the Coulomb interaction                   ... done (   0.5 sec)
Reading the grid                                   ... done
Mapping shells                                     ... done
Starting the XC term evaluation                    ... done (   0.5 sec)
  promolecular density results
     # of electrons  =    101.984312089
     EX              =    -83.665350174
     EC              =     -3.458911859
     EX+EC           =    -87.124262033
Transforming the Hamiltonian                       ... done (   0.0 sec)
Diagonalizing the Hamiltonian                      ... done (   0.0 sec)
Back transforming the eigenvectors                 ... done (   0.0 sec)
Now organizing SCF variables                       ... done
                      ------------------
                      INITIAL GUESS DONE (   2.3 sec)
                      ------------------
--------------
SCF ITERATIONS
--------------
ITER       Energy         Delta-E        Max-DP      RMS-DP      [F,P]     Damp
               ***  Starting incremental Fock matrix formation  ***
  0   -652.5342154049   0.000000000000 0.07940653  0.00303381  0.2395193 0.7000
  1   -652.6728243604  -0.138608955484 0.04562819  0.00207522  0.0942628 0.7000
                               ***Turning on DIIS***
  2   -652.7248451501  -0.052020789722 0.05750564  0.00331326  0.0310649 0.0000
  3   -652.8106994766  -0.085854326443 0.03229887  0.00137903  0.0523627 0.0000
  4   -652.8279001893  -0.017200712696 0.00879821  0.00042483  0.0110213 0.0000
  5   -652.8288897573  -0.000989568038 0.00268953  0.00013100  0.0037159 0.0000
                      *** Initiating the SOSCF procedure ***
                           *** Shutting down DIIS ***
                      *** Re-Reading the Fockian *** 
                      *** Removing any level shift *** 
ITER      Energy       Delta-E        Grad      Rot      Max-DP    RMS-DP
  6   -652.82895862  -0.0000688609  0.000223  0.000223  0.000843  0.000053
               *** Restarting incremental Fock matrix formation ***
  7   -652.82896142  -0.0000028022  0.000095  0.000173  0.000904  0.000029
  8   -652.82896020   0.0000012160  0.000145  0.000135  0.000456  0.000018
  9   -652.82896248  -0.0000022741  0.000023  0.000036  0.000184  0.000006
 10   -652.82896241   0.0000000705  0.000033  0.000024  0.000123  0.000004
 11   -652.82896253  -0.0000001266  0.000003  0.000006  0.000020  0.000001
 12   -652.82896253   0.0000000001  0.000005  0.000004  0.000013  0.000000
                  ***Gradient check signals convergence***
              ***Rediagonalizing the Fockian in SOSCF/NRSCF***

               *****************************************************
               *                     SUCCESS                       *
               *           SCF CONVERGED AFTER  13 CYCLES          *
               *****************************************************

Setting up the final grid:

General Integration Accuracy     IntAcc      ...  4.670
Radial Grid Type                 RadialGrid  ... Gauss-Chebyshev
Angular Grid (max. acc.)         AngularGrid ... Lebedev-302
Angular grid pruning method      GridPruning ... 3 (G Style)
Weight generation scheme         WeightScheme... Becke
Basis function cutoff            BFCut       ...    1.0000e-11
Integration weight cutoff        WCut        ...    1.0000e-14
Grids for H and He will be reduced by one unit

# of grid points (after initial pruning)     ... 135060 (   0.1 sec)
# of grid points (after weights+screening)   ... 118641 (   1.6 sec)
nearest neighbour list constructed           ...    0.0 sec
Grid point re-assignment to atoms done       ...    0.0 sec
Grid point division into batches done        ...    0.5 sec
Reduced shell lists constructed in    1.8 sec

Total number of grid points                  ...   118641
Total number of batches                      ...     1867
Average number of points per batch           ...       63
Average number of grid points per atom       ...     4091
Average number of shells per batch           ...    54.86 (56.56%)
Average number of basis functions per batch  ...    88.95 (59.70%)
Average number of large shells per batch     ...    37.91 (69.11%)
Average number of large basis fcns per batch ...    62.74 (70.54%)
Maximum spatial batch extension              ...  16.39, 20.71, 17.85 au
Average spatial batch extension              ...   2.16,  2.25,  2.22 au

Final grid set up in    3.6 sec
Final integration                            ... done (   2.7 sec)
Change in XC energy                          ...    -0.000829121
Integrated number of electrons               ...   101.999927385
Previous integrated no of electrons          ...   101.995878637

----------------
TOTAL SCF ENERGY
----------------

Total Energy       :         -652.82979166 Eh          -17764.40176 eV

Components:
Nuclear Repulsion  :          867.32292242 Eh           23601.05657 eV
Electronic Energy  :        -1520.15271408 Eh          -41365.45833 eV
One Electron Energy:        -2612.01415920 Eh          -71076.51873 eV
Two Electron Energy:         1091.86144512 Eh           29711.06040 eV

Virial components:
Potential Energy   :        -1301.76223547 Eh          -35422.75128 eV
Kinetic Energy     :          648.93244381 Eh           17658.34953 eV
Virial Ratio       :            2.00600578


DFT components:
N(Alpha)           :       50.999963692686 electrons
N(Beta)            :       50.999963692686 electrons
N(Total)           :      101.999927385372 electrons
E(X)               :      -67.590423980813 Eh       
E(C)               :       -4.069810499985 Eh       
E(XC)              :      -71.660234480798 Eh       
DFET-embed. en.    :        0.000000000000 Eh       

---------------
SCF CONVERGENCE
---------------

  Last Energy change         ...   -9.2916e-10  Tolerance :   1.0000e-08
  Last MAX-Density change    ...    3.1816e-06  Tolerance :   1.0000e-07
  Last RMS-Density change    ...    1.1477e-07  Tolerance :   5.0000e-09
  Last Orbital Gradient      ...    3.8964e-07  Tolerance :   1.0000e-05
  Last Orbital Rotation      ...    6.0091e-07  Tolerance :   1.0000e-05

             **** THE GBW FILE WAS UPDATED (project_8050/ensemble_165_195.gbw) ****
             **** DENSITY FILE WAS UPDATED (project_8050/ensemble_165_195.scfp) ****
             **** ENERGY FILE WAS UPDATED (project_8050/ensemble_165_195.en.tmp) ****
             **** THE GBW FILE WAS UPDATED (project_8050/ensemble_165_195.gbw) ****
             **** DENSITY FILE WAS UPDATED (project_8050/ensemble_165_195.scfp) ****
----------------
ORBITAL ENERGIES
----------------

  NO   OCC          E(Eh)            E(eV) 
   0   2.0000     -19.154759      -521.2275 
   1   2.0000     -19.152588      -521.1684 
   2   2.0000     -19.147441      -521.0284 
   3   2.0000     -19.143340      -520.9168 
   4   2.0000     -10.288979      -279.9773 
   5   2.0000     -10.244646      -278.7710 
   6   2.0000     -10.241541      -278.6865 
   7   2.0000     -10.238658      -278.6080 
   8   2.0000     -10.237496      -278.5764 
   9   2.0000     -10.231439      -278.4116 
  10   2.0000     -10.198194      -277.5070 
  11   2.0000     -10.198049      -277.5030 
  12   2.0000     -10.196462      -277.4598 
  13   2.0000      -1.039173       -28.2773 
  14   2.0000      -1.036638       -28.2084 
  15   2.0000      -0.967525       -26.3277 
  16   2.0000      -0.962815       -26.1995 
  17   2.0000      -0.794846       -21.6289 
  18   2.0000      -0.787094       -21.4179 
  19   2.0000      -0.769310       -20.9340 
  20   2.0000      -0.735351       -20.0099 
  21   2.0000      -0.677548       -18.4370 
  22   2.0000      -0.607436       -16.5292 
  23   2.0000      -0.604609       -16.4523 
  24   2.0000      -0.594154       -16.1677 
  25   2.0000      -0.577567       -15.7164 
  26   2.0000      -0.519034       -14.1236 
  27   2.0000      -0.508955       -13.8494 
  28   2.0000      -0.499220       -13.5845 
  29   2.0000      -0.496447       -13.5090 
  30   2.0000      -0.467806       -12.7297 
  31   2.0000      -0.449985       -12.2447 
  32   2.0000      -0.448829       -12.2133 
  33   2.0000      -0.436991       -11.8911 
  34   2.0000      -0.424674       -11.5560 
  35   2.0000      -0.417380       -11.3575 
  36   2.0000      -0.407856       -11.0983 
  37   2.0000      -0.391818       -10.6619 
  38   2.0000      -0.379971       -10.3395 
  39   2.0000      -0.371036       -10.0964 
  40   2.0000      -0.369296       -10.0490 
  41   2.0000      -0.361175        -9.8281 
  42   2.0000      -0.356669        -9.7054 
  43   2.0000      -0.329033        -8.9534 
  44   2.0000      -0.322162        -8.7665 
  45   2.0000      -0.312550        -8.5049 
  46   2.0000      -0.302939        -8.2434 
  47   2.0000      -0.273976        -7.4553 
  48   2.0000      -0.265147        -7.2150 
  49   2.0000      -0.256955        -6.9921 
  50   2.0000      -0.249112        -6.7787 
  51   0.0000       0.035104         0.9552 
  52   0.0000       0.048137         1.3099 
  53   0.0000       0.060541         1.6474 
  54   0.0000       0.088142         2.3985 
  55   0.0000       0.094796         2.5795 
  56   0.0000       0.098522         2.6809 
  57   0.0000       0.108963         2.9650 
  58   0.0000       0.119699         3.2572 
  59   0.0000       0.130147         3.5415 
  60   0.0000       0.136922         3.7258 
  61   0.0000       0.138021         3.7557 
  62   0.0000       0.143628         3.9083 
  63   0.0000       0.148033         4.0282 
  64   0.0000       0.152290         4.1440 
  65   0.0000       0.167233         4.5506 
  66   0.0000       0.168296         4.5796 
  67   0.0000       0.176110         4.7922 
  68   0.0000       0.184787         5.0283 
  69   0.0000       0.190304         5.1784 
  70   0.0000       0.194338         5.2882 
  71   0.0000       0.211574         5.7572 
  72   0.0000       0.221398         6.0246 
  73   0.0000       0.230036         6.2596 
  74   0.0000       0.238321         6.4850 
  75   0.0000       0.246480         6.7071 
  76   0.0000       0.259332         7.0568 
  77   0.0000       0.275525         7.4974 
  78   0.0000       0.280610         7.6358 
  79   0.0000       0.291388         7.9291 
  80   0.0000       0.300943         8.1891 
  81   0.0000       0.511523        13.9193 
  82   0.0000       0.532877        14.5003 
  83   0.0000       0.538346        14.6491 
  84   0.0000       0.546566        14.8728 
  85   0.0000       0.549389        14.9496 
  86   0.0000       0.563016        15.3204 
  87   0.0000       0.566617        15.4184 
  88   0.0000       0.583043        15.8654 
  89   0.0000       0.587549        15.9880 
  90   0.0000       0.589845        16.0505 
  91   0.0000       0.609168        16.5763 
  92   0.0000       0.620166        16.8756 
  93   0.0000       0.625266        17.0144 
  94   0.0000       0.635111        17.2822 
  95   0.0000       0.640599        17.4316 
  96   0.0000       0.642390        17.4803 
  97   0.0000       0.664216        18.0742 
  98   0.0000       0.680762        18.5245 
  99   0.0000       0.689684        18.7673 
 100   0.0000       0.728675        19.8283 
 101   0.0000       0.746338        20.3089 
 102   0.0000       0.778347        21.1799 
 103   0.0000       0.810860        22.0646 
 104   0.0000       0.819352        22.2957 
 105   0.0000       0.822085        22.3701 
 106   0.0000       0.839622        22.8473 
 107   0.0000       0.843457        22.9516 
 108   0.0000       0.865402        23.5488 
 109   0.0000       0.867045        23.5935 
 110   0.0000       0.872212        23.7341 
 111   0.0000       0.888354        24.1733 
 112   0.0000       0.893945        24.3255 
 113   0.0000       0.901477        24.5304 
 114   0.0000       0.916616        24.9424 
 115   0.0000       0.927569        25.2404 
 116   0.0000       0.933237        25.3947 
 117   0.0000       0.938486        25.5375 
 118   0.0000       0.951778        25.8992 
 119   0.0000       0.956735        26.0341 
 120   0.0000       0.972739        26.4696 
 121   0.0000       0.991199        26.9719 
 122   0.0000       0.998190        27.1621 
 123   0.0000       1.036189        28.1961 
 124   0.0000       1.055262        28.7152 
 125   0.0000       1.080868        29.4119 
 126   0.0000       1.095012        29.7968 
 127   0.0000       1.100679        29.9510 
 128   0.0000       1.124579        30.6014 
 129   0.0000       1.155019        31.4297 
 130   0.0000       1.175330        31.9824 
 131   0.0000       1.227777        33.4095 
 132   0.0000       1.247234        33.9390 
 133   0.0000       1.302245        35.4359 
 134   0.0000       1.318616        35.8814 
 135   0.0000       1.325074        36.0571 
 136   0.0000       1.380122        37.5550 
 137   0.0000       1.395768        37.9808 
 138   0.0000       1.399899        38.0932 
 139   0.0000       1.467491        39.9324 
 140   0.0000       1.474223        40.1157 
 141   0.0000       1.561174        42.4817 
 142   0.0000       1.645457        44.7752 
 143   0.0000       1.670013        45.4434 
 144   0.0000       1.696015        46.1509 
 145   0.0000       1.832627        49.8683 
 146   0.0000       1.898332        51.6562 
 147   0.0000       2.055191        55.9246 
 148   0.0000       2.090159        56.8761 

                    ********************************
                    * MULLIKEN POPULATION ANALYSIS *
                    ********************************

-----------------------
MULLIKEN ATOMIC CHARGES
-----------------------
   0 C :    0.312060
   1 C :   -0.294077
   2 C :   -0.301857
   3 C :   -0.000877
   4 O :   -0.497749
   5 H :    0.155169
   6 H :    0.154408
   7 H :    0.141982
   8 H :    0.146047
   9 H :    0.155053
  10 H :    0.156292
  11 H :    0.145421
  12 C :   -0.036555
  13 H :    0.123900
  14 H :    0.153573
  15 O :   -0.514362
  16 C :    0.065231
  17 C :    0.079207
  18 C :   -0.318278
  19 C :   -0.025718
  20 O :   -0.518330
  21 H :    0.181627
  22 O :   -0.594116
  23 H :    0.179615
  24 H :    0.164345
  25 H :    0.148556
  26 H :    0.145023
  27 H :    0.148019
  28 H :    0.346392
Sum of atomic charges:   -0.0000000

--------------------------------
MULLIKEN REDUCED ORBITAL CHARGES
--------------------------------
  0 C s       :     3.225678  s :     3.225678
      pz      :     0.794069  p :     2.462262
      px      :     0.689810
      py      :     0.978383
  1 C s       :     3.311093  s :     3.311093
      pz      :     0.979219  p :     2.982983
      px      :     1.053449
      py      :     0.950315
  2 C s       :     3.316924  s :     3.316924
      pz      :     0.906785  p :     2.984933
      px      :     1.081956
      py      :     0.996192
  3 C s       :     3.261638  s :     3.261638
      pz      :     0.941320  p :     2.739239
      px      :     1.059192
      py      :     0.738727
  4 O s       :     3.948067  s :     3.948067
      pz      :     1.318335  p :     4.549682
      px      :     1.715130
      py      :     1.516217
  5 H s       :     0.844831  s :     0.844831
  6 H s       :     0.845592  s :     0.845592
  7 H s       :     0.858018  s :     0.858018
  8 H s       :     0.853953  s :     0.853953
  9 H s       :     0.844947  s :     0.844947
 10 H s       :     0.843708  s :     0.843708
 11 H s       :     0.854579  s :     0.854579
 12 C s       :     3.286929  s :     3.286929
      pz      :     0.870314  p :     2.749626
      px      :     0.920381
      py      :     0.958931
 13 H s       :     0.876100  s :     0.876100
 14 H s       :     0.846427  s :     0.846427
 15 O s       :     3.953597  s :     3.953597
      pz      :     1.535286  p :     4.560766
      px      :     1.285320
      py      :     1.740159
 16 C s       :     3.279195  s :     3.279195
      pz      :     0.754225  p :     2.655574
      px      :     0.944189
      py      :     0.957161
 17 C s       :     3.300313  s :     3.300313
      pz      :     0.951413  p :     2.620479
      px      :     0.759855
      py      :     0.909211
 18 C s       :     3.320218  s :     3.320218
      pz      :     0.944824  p :     2.998059
      px      :     1.036003
      py      :     1.017232
 19 C s       :     3.266593  s :     3.266593
      pz      :     0.998911  p :     2.759125
      px      :     1.059476
      py      :     0.700738
 20 O s       :     3.946404  s :     3.946404
      pz      :     1.581562  p :     4.571926
      px      :     1.759481
      py      :     1.230884
 21 H s       :     0.818373  s :     0.818373
 22 O s       :     3.952576  s :     3.952576
      pz      :     1.522241  p :     4.641540
      px      :     1.218803
      py      :     1.900496
 23 H s       :     0.820385  s :     0.820385
 24 H s       :     0.835655  s :     0.835655
 25 H s       :     0.851444  s :     0.851444
 26 H s       :     0.854977  s :     0.854977
 27 H s       :     0.851981  s :     0.851981
 28 H s       :     0.653608  s :     0.653608


                     *******************************
                     * LOEWDIN POPULATION ANALYSIS *
                     *******************************

----------------------
LOEWDIN ATOMIC CHARGES
----------------------
   0 C :    0.193596
   1 C :   -0.231905
   2 C :   -0.217729
   3 C :   -0.027365
   4 O :   -0.297643
   5 H :    0.106672
   6 H :    0.119407
   7 H :    0.113611
   8 H :    0.115713
   9 H :    0.111813
  10 H :    0.110297
  11 H :    0.104226
  12 C :   -0.052147
  13 H :    0.091793
  14 H :    0.109555
  15 O :   -0.368656
  16 C :    0.028852
  17 C :    0.044112
  18 C :   -0.241414
  19 C :   -0.038970
  20 O :   -0.321821
  21 H :    0.128065
  22 O :   -0.440575
  23 H :    0.131135
  24 H :    0.127963
  25 H :    0.111831
  26 H :    0.102913
  27 H :    0.103150
  28 H :    0.283518

-------------------------------
LOEWDIN REDUCED ORBITAL CHARGES
-------------------------------
  0 C s       :     2.977842  s :     2.977842
      pz      :     0.916735  p :     2.828562
      px      :     0.832715
      py      :     1.079112
  1 C s       :     2.977634  s :     2.977634
      pz      :     1.076322  p :     3.254270
      px      :     1.111257
      py      :     1.066691
  2 C s       :     2.972968  s :     2.972968
      pz      :     1.032694  p :     3.244760
      px      :     1.129764
      py      :     1.082302
  3 C s       :     2.983731  s :     2.983731
      pz      :     1.039666  p :     3.043634
      px      :     1.120863
      py      :     0.883105
  4 O s       :     3.607984  s :     3.607984
      pz      :     1.379115  p :     4.689658
      px      :     1.747319
      py      :     1.563224
  5 H s       :     0.893328  s :     0.893328
  6 H s       :     0.880593  s :     0.880593
  7 H s       :     0.886389  s :     0.886389
  8 H s       :     0.884287  s :     0.884287
  9 H s       :     0.888187  s :     0.888187
 10 H s       :     0.889703  s :     0.889703
 11 H s       :     0.895774  s :     0.895774
 12 C s       :     3.006360  s :     3.006360
      pz      :     0.962109  p :     3.045787
      px      :     1.036198
      py      :     1.047479
 13 H s       :     0.908207  s :     0.908207
 14 H s       :     0.890445  s :     0.890445
 15 O s       :     3.663239  s :     3.663239
      pz      :     1.586903  p :     4.705417
      px      :     1.343390
      py      :     1.775123
 16 C s       :     2.966310  s :     2.966310
      pz      :     0.911233  p :     3.004838
      px      :     1.046244
      py      :     1.047361
 17 C s       :     2.975897  s :     2.975897
      pz      :     1.062675  p :     2.979991
      px      :     0.875254
      py      :     1.042062
 18 C s       :     2.982457  s :     2.982457
      pz      :     1.056560  p :     3.258956
      px      :     1.109969
      py      :     1.092428
 19 C s       :     2.983504  s :     2.983504
      pz      :     1.089048  p :     3.055466
      px      :     1.123242
      py      :     0.843176
 20 O s       :     3.602777  s :     3.602777
      pz      :     1.626991  p :     4.719043
      px      :     1.790469
      py      :     1.301583
 21 H s       :     0.871935  s :     0.871935
 22 O s       :     3.694709  s :     3.694709
      pz      :     1.557470  p :     4.745866
      px      :     1.279806
      py      :     1.908589
 23 H s       :     0.868865  s :     0.868865
 24 H s       :     0.872037  s :     0.872037
 25 H s       :     0.888169  s :     0.888169
 26 H s       :     0.897087  s :     0.897087
 27 H s       :     0.896850  s :     0.896850
 28 H s       :     0.716482  s :     0.716482


                      *****************************
                      * MAYER POPULATION ANALYSIS *
                      *****************************

  NA   - Mulliken gross atomic population
  ZA   - Total nuclear charge
  QA   - Mulliken gross atomic charge
  VA   - Mayer's total valence
  BVA  - Mayer's bonded valence
  FA   - Mayer's free valence

  ATOM       NA         ZA         QA         VA         BVA        FA
  0 C      5.6879     6.0000     0.3121     3.6452     3.6452    -0.0000
  1 C      6.2941     6.0000    -0.2941     3.7195     3.7195    -0.0000
  2 C      6.3019     6.0000    -0.3019     3.7601     3.7601    -0.0000
  3 C      6.0009     6.0000    -0.0009     3.6542     3.6542    -0.0000
  4 O      8.4977     8.0000    -0.4977     1.8299     1.8299    -0.0000
  5 H      0.8448     1.0000     0.1552     0.9262     0.9262    -0.0000
  6 H      0.8456     1.0000     0.1544     0.9320     0.9320    -0.0000
  7 H      0.8580     1.0000     0.1420     0.9418     0.9418    -0.0000
  8 H      0.8540     1.0000     0.1460     0.9362     0.9362    -0.0000
  9 H      0.8449     1.0000     0.1551     0.9356     0.9356    -0.0000
 10 H      0.8437     1.0000     0.1563     0.9249     0.9249     0.0000
 11 H      0.8546     1.0000     0.1454     0.9281     0.9281     0.0000
 12 C      6.0366     6.0000    -0.0366     3.6335     3.6335    -0.0000
 13 H      0.8761     1.0000     0.1239     0.9306     0.9306    -0.0000
 14 H      0.8464     1.0000     0.1536     0.9245     0.9245    -0.0000
 15 O      8.5144     8.0000    -0.5144     1.7699     1.7699    -0.0000
 16 C      5.9348     6.0000     0.0652     3.5863     3.5863    -0.0000
 17 C      5.9208     6.0000     0.0792     3.6261     3.6261    -0.0000
 18 C      6.3183     6.0000    -0.3183     3.7052     3.7052    -0.0000
 19 C      6.0257     6.0000    -0.0257     3.6611     3.6611    -0.0000
 20 O      8.5183     8.0000    -0.5183     1.7726     1.7726     0.0000
 21 H      0.8184     1.0000     0.1816     0.9307     0.9307     0.0000
 22 O      8.5941     8.0000    -0.5941     1.7607     1.7607     0.0000
 23 H      0.8204     1.0000     0.1796     0.9414     0.9414    -0.0000
 24 H      0.8357     1.0000     0.1643     0.9392     0.9392     0.0000
 25 H      0.8514     1.0000     0.1486     0.9327     0.9327    -0.0000
 26 H      0.8550     1.0000     0.1450     0.9275     0.9275    -0.0000
 27 H      0.8520     1.0000     0.1480     0.9291     0.9291    -0.0000
 28 H      0.6536     1.0000     0.3464     0.8498     0.8498    -0.0000

  Mayer bond orders larger than 0.100000
B(  0-C ,  1-C ) :   0.9265 B(  0-C ,  4-O ) :   0.9367 B(  0-C ,  5-H ) :   0.9223 
B(  0-C , 15-O ) :   0.8226 B(  1-C ,  2-C ) :   0.9531 B(  1-C ,  6-H ) :   0.9322 
B(  1-C ,  7-H ) :   0.9224 B(  2-C ,  3-C ) :   0.9542 B(  2-C ,  8-H ) :   0.9444 
B(  2-C ,  9-H ) :   0.9420 B(  3-C ,  4-O ) :   0.8364 B(  3-C , 10-H ) :   0.9329 
B(  3-C , 11-H ) :   0.9381 B( 12-C , 13-H ) :   0.8994 B( 12-C , 14-H ) :   0.9183 
B( 12-C , 15-O ) :   0.8551 B( 12-C , 16-C ) :   0.8897 B( 16-C , 17-C ) :   0.9072 
B( 16-C , 20-O ) :   0.8492 B( 16-C , 21-H ) :   0.9249 B( 17-C , 18-C ) :   0.9166 
B( 17-C , 22-O ) :   0.8864 B( 17-C , 23-H ) :   0.9196 B( 18-C , 19-C ) :   0.9384 
B( 18-C , 24-H ) :   0.9373 B( 18-C , 25-H ) :   0.9299 B( 19-C , 20-O ) :   0.8448 
B( 19-C , 26-H ) :   0.9352 B( 19-C , 27-H ) :   0.9374 B( 22-O , 28-H ) :   0.8110 


-------
TIMINGS
-------

Total SCF time: 0 days 0 hours 3 min 31 sec 

Total time                  ....     211.161 sec
Sum of individual times     ....     205.474 sec  ( 97.3%)

Fock matrix formation       ....     199.157 sec  ( 94.3%)
  XC integration            ....      21.945 sec  ( 11.0% of F)
    Basis function eval.    ....       4.048 sec  ( 18.4% of XC)
    Density eval.           ....       2.185 sec  ( 10.0% of XC)
    XC-Functional eval.     ....       1.034 sec  (  4.7% of XC)
    XC-Potential eval.      ....       2.362 sec  ( 10.8% of XC)
Diagonalization             ....       0.076 sec  (  0.0%)
Density matrix formation    ....       0.009 sec  (  0.0%)
Population analysis         ....       0.024 sec  (  0.0%)
Initial guess               ....       1.083 sec  (  0.5%)
Orbital Transformation      ....       0.000 sec  (  0.0%)
Orbital Orthonormalization  ....       0.000 sec  (  0.0%)
DIIS solution               ....       0.198 sec  (  0.1%)
SOSCF solution              ....       0.069 sec  (  0.0%)
Grid generation             ....       4.858 sec  (  2.3%)

-------------------------   --------------------
FINAL SINGLE POINT ENERGY      -652.829791656530
-------------------------   --------------------

------------------------------------------------------------------------------
                         ORCA SCF GRADIENT CALCULATION
------------------------------------------------------------------------------

Gradient of the Kohn-Sham DFT energy:
Kohn-Sham wavefunction type      ... RKS
Hartree-Fock exchange scaling    ...    0.200
Number of operators              ...    1
Number of atoms                  ...   29
Basis set dimensions             ...  149
Integral neglect threshold       ... 2.5e-11
Integral primitive cutoff        ... 2.5e-12

Nuclear repulsion gradient       ... done
One Electron Gradient            ... done
Pre-screening matrix             ... done
Starting the two electron gradient:
Two electron gradient done
Exchange-correlation gradient    ... done

------------------
CARTESIAN GRADIENT
------------------

   1   C   :    0.009890250   -0.002763420   -0.003699376
   2   C   :    0.003003407   -0.002163695   -0.004847241
   3   C   :   -0.000892135   -0.000152458   -0.001569557
   4   C   :    0.001433849   -0.005545272   -0.004050110
   5   O   :    0.019044332   -0.007305702    0.021369637
   6   H   :    0.004822966    0.002210991   -0.002037079
   7   H   :    0.000578403    0.001846394    0.000287269
   8   H   :   -0.005905335    0.001171021   -0.001545906
   9   H   :   -0.000485581    0.000620392    0.000195259
  10   H   :   -0.000804866    0.001148347    0.000179497
  11   H   :   -0.000518016    0.001004937    0.001607852
  12   H   :   -0.000233394    0.001141197    0.000930453
  13   C   :   -0.010447764    0.010603987   -0.007355768
  14   H   :    0.002114770    0.003613522   -0.000208816
  15   H   :   -0.002931386    0.002596549   -0.002732750
  16   O   :   -0.007046659   -0.016660197    0.018799212
  17   C   :   -0.011957683    0.012339601   -0.015557350
  18   C   :    0.031878971   -0.008020193   -0.000037978
  19   C   :    0.004271277    0.000601813    0.001606918
  20   C   :   -0.002599180   -0.004193322   -0.000275090
  21   O   :   -0.005562778    0.002342246    0.000922239
  22   H   :    0.001963944   -0.002771487   -0.003416140
  23   O   :    0.006946383   -0.012607489    0.050651166
  24   H   :    0.011163314    0.001247993   -0.002226990
  25   H   :    0.000696687    0.002249908   -0.001823153
  26   H   :    0.000627163   -0.000577830   -0.001177068
  27   H   :    0.000569163   -0.000336522    0.000636543
  28   H   :    0.000454939   -0.000351195    0.000651612
  29   H   :   -0.050075044    0.018709883   -0.045277286

Difference to translation invariance:
           :    0.0000000000   -0.0000000001   -0.0000000002

Norm of the cartesian gradient     ...    0.1082118137
RMS gradient                       ...    0.0116015242
MAX gradient                       ...    0.0506511662

-------
TIMINGS
-------

Total SCF gradient time            ...       44.965 sec

One electron gradient       ....       0.377 sec  (  0.8%)
Prescreening matrices       ....       0.063 sec  (  0.1%)
Two electron gradient       ....      24.823 sec  ( 55.2%)
XC gradient                 ....      19.567 sec  ( 43.5%)
------------------------------------------------------------------------------
                         ORCA GEOMETRY RELAXATION STEP
------------------------------------------------------------------------------

Reading the OPT-File                    .... done
Getting information on internals        .... done
Copying old internal coords+grads       .... done
Making the new internal coordinates     .... (new redundants).... done
Validating the new internal coordinates .... (new redundants).... done
Calculating the B-matrix                .... done
Calculating the G,G- and P matrices     .... done
Transforming gradient to internals      .... done
Projecting the internal gradient        .... done
Number of atoms                         ....  29
Number of internal coordinates          .... 172
Current Energy                          ....  -652.829791657 Eh
Current gradient norm                   ....     0.108211814 Eh/bohr
Maximum allowed component of the step   ....  0.300
Current trust radius                    ....  0.300
Evaluating the initial hessian          ....  (Almloef) done
Projecting the Hessian                  .... done
Forming the augmented Hessian           .... done
Diagonalizing the augmented Hessian     .... done
Last element of RFO vector              ....  0.942296155
Lowest eigenvalues of augmented Hessian:
 -0.038083863  0.007835419  0.032978188  0.033149236  0.036588234
Length of the computed step             ....  0.355281574
Warning: the length of the step is outside the trust region - taking restricted step instead
The input lambda is                     ....    -0.038084
   iter:   1  x=   -0.072120  g=    1.064305 f(x)=     0.036225
   iter:   2  x=   -0.085644  g=    0.634937 f(x)=     0.008587
   iter:   3  x=   -0.086805  g=    0.545273 f(x)=     0.000633
   iter:   4  x=   -0.086812  g=    0.538601 f(x)=     0.000004
   iter:   5  x=   -0.086812  g=    0.538560 f(x)=     0.000000
   iter:   6  x=   -0.086812  g=    0.538560 f(x)=     0.000000
The output lambda is                    ....    -0.086812 (6 iterations)
The final length of the internal step   ....  0.300000000
Converting the step to cartesian space:
 Initial RMS(Int)=    0.0228747855
Transforming coordinates:
 Iter   0:  RMS(Cart)=    0.1270097422 RMS(Int)=    0.4781574808
 Iter   1:  RMS(Cart)=    0.0063897802 RMS(Int)=    0.0029628017
 Iter   2:  RMS(Cart)=    0.0005509066 RMS(Int)=    0.0001133000
 Iter   3:  RMS(Cart)=    0.0000559133 RMS(Int)=    0.0000296631
 Iter   4:  RMS(Cart)=    0.0000051575 RMS(Int)=    0.0000012734
 Iter   5:  RMS(Cart)=    0.0000005500 RMS(Int)=    0.0000002943
 Iter   6:  RMS(Cart)=    0.0000000500 RMS(Int)=    0.0000000151
Imposing constraints:
[...]
  29   2.0000      -0.496019       -13.4974 
  30   2.0000      -0.477014       -12.9802 
  31   2.0000      -0.457557       -12.4508 
  32   2.0000      -0.453016       -12.3272 
  33   2.0000      -0.445461       -12.1216 
  34   2.0000      -0.428192       -11.6517 
  35   2.0000      -0.416496       -11.3334 
  36   2.0000      -0.406612       -11.0645 
  37   2.0000      -0.394581       -10.7371 
  38   2.0000      -0.382715       -10.4142 
  39   2.0000      -0.370498       -10.0818 
  40   2.0000      -0.367260        -9.9937 
  41   2.0000      -0.360763        -9.8168 
  42   2.0000      -0.356171        -9.6919 
  43   2.0000      -0.334356        -9.0983 
  44   2.0000      -0.318338        -8.6624 
  45   2.0000      -0.308565        -8.3965 
  46   2.0000      -0.301994        -8.2177 
  47   2.0000      -0.273209        -7.4344 
  48   2.0000      -0.263812        -7.1787 
  49   2.0000      -0.256794        -6.9877 
  50   2.0000      -0.247973        -6.7477 
  51   0.0000       0.053850         1.4653 
  52   0.0000       0.065268         1.7760 
  53   0.0000       0.090702         2.4681 
  54   0.0000       0.096366         2.6223 
  55   0.0000       0.101572         2.7639 
  56   0.0000       0.104838         2.8528 
  57   0.0000       0.113320         3.0836 
  58   0.0000       0.130627         3.5545 
  59   0.0000       0.134279         3.6539 
  60   0.0000       0.137468         3.7407 
  61   0.0000       0.143140         3.8950 
  62   0.0000       0.147228         4.0063 
  63   0.0000       0.151054         4.1104 
  64   0.0000       0.167574         4.5599 
  65   0.0000       0.178437         4.8555 
  66   0.0000       0.180876         4.9219 
  67   0.0000       0.182878         4.9764 
  68   0.0000       0.192111         5.2276 
  69   0.0000       0.204540         5.5658 
  70   0.0000       0.208693         5.6788 
  71   0.0000       0.219450         5.9715 
  72   0.0000       0.231213         6.2916 
  73   0.0000       0.235624         6.4117 
  74   0.0000       0.247462         6.7338 
  75   0.0000       0.259010         7.0480 
  76   0.0000       0.263535         7.1711 
  77   0.0000       0.277352         7.5471 
  78   0.0000       0.287920         7.8347 
  79   0.0000       0.300163         8.1678 
  80   0.0000       0.323586         8.8052 
  81   0.0000       0.514216        13.9925 
  82   0.0000       0.539771        14.6879 
  83   0.0000       0.542148        14.7526 
  84   0.0000       0.549696        14.9580 
  85   0.0000       0.555542        15.1171 
  86   0.0000       0.561716        15.2851 
  87   0.0000       0.575982        15.6733 
  88   0.0000       0.581776        15.8309 
  89   0.0000       0.589217        16.0334 
  90   0.0000       0.602528        16.3956 
  91   0.0000       0.611875        16.6500 
  92   0.0000       0.616681        16.7807 
  93   0.0000       0.624652        16.9976 
  94   0.0000       0.639907        17.4128 
  95   0.0000       0.644654        17.5419 
  96   0.0000       0.646864        17.6021 
  97   0.0000       0.679339        18.4857 
  98   0.0000       0.685090        18.6423 
  99   0.0000       0.701985        19.1020 
 100   0.0000       0.730424        19.8759 
 101   0.0000       0.753486        20.5034 
 102   0.0000       0.785643        21.3784 
 103   0.0000       0.819385        22.2966 
 104   0.0000       0.825178        22.4542 
 105   0.0000       0.838081        22.8054 
 106   0.0000       0.850468        23.1424 
 107   0.0000       0.854378        23.2488 
 108   0.0000       0.860515        23.4158 
 109   0.0000       0.870807        23.6959 
 110   0.0000       0.876158        23.8415 
 111   0.0000       0.891077        24.2474 
 112   0.0000       0.904947        24.6249 
 113   0.0000       0.908645        24.7255 
 114   0.0000       0.910476        24.7753 
 115   0.0000       0.928980        25.2788 
 116   0.0000       0.934670        25.4337 
 117   0.0000       0.944303        25.6958 
 118   0.0000       0.951355        25.8877 
 119   0.0000       0.961809        26.1722 
 120   0.0000       0.981543        26.7091 
 121   0.0000       0.985556        26.8184 
 122   0.0000       0.988149        26.8889 
 123   0.0000       1.031590        28.0710 
 124   0.0000       1.063339        28.9349 
 125   0.0000       1.081036        29.4165 
 126   0.0000       1.099446        29.9175 
 127   0.0000       1.110381        30.2150 
 128   0.0000       1.117159        30.3994 
 129   0.0000       1.141405        31.0592 
 130   0.0000       1.216051        33.0904 
 131   0.0000       1.242863        33.8200 
 132   0.0000       1.246173        33.9101 
 133   0.0000       1.296777        35.2871 
 134   0.0000       1.312609        35.7179 
 135   0.0000       1.337915        36.4065 
 136   0.0000       1.382600        37.6225 
 137   0.0000       1.406896        38.2836 
 138   0.0000       1.417805        38.5804 
 139   0.0000       1.483082        40.3567 
 140   0.0000       1.504734        40.9459 
 141   0.0000       1.624886        44.2154 
 142   0.0000       1.631721        44.4014 
 143   0.0000       1.672459        45.5099 
 144   0.0000       1.715029        46.6683 
 145   0.0000       1.872285        50.9475 
 146   0.0000       1.946134        52.9570 
 147   0.0000       2.063479        56.1501 
 148   0.0000       2.114019        57.5254 

                    ********************************
                    * MULLIKEN POPULATION ANALYSIS *
                    ********************************

-----------------------
MULLIKEN ATOMIC CHARGES
-----------------------
   0 C :    0.321565
   1 C :   -0.296144
   2 C :   -0.303252
   3 C :   -0.001842
   4 O :   -0.497183
   5 H :    0.147580
   6 H :    0.154677
   7 H :    0.143064
   8 H :    0.145737
   9 H :    0.154979
  10 H :    0.156454
  11 H :    0.145663
  12 C :   -0.008773
  13 H :    0.120057
  14 H :    0.148336
  15 O :   -0.523560
  16 C :    0.056968
  17 C :    0.089942
  18 C :   -0.307082
  19 C :   -0.028267
  20 O :   -0.526572
  21 H :    0.173594
  22 O :   -0.601111
  23 H :    0.174253
  24 H :    0.162320
  25 H :    0.143097
  26 H :    0.143350
  27 H :    0.149259
  28 H :    0.362890
Sum of atomic charges:   -0.0000000

--------------------------------
MULLIKEN REDUCED ORBITAL CHARGES
--------------------------------
  0 C s       :     3.192658  s :     3.192658
      pz      :     0.783085  p :     2.485777
      px      :     0.701760
      py      :     1.000932
  1 C s       :     3.312654  s :     3.312654
      pz      :     0.990223  p :     2.983490
      px      :     1.032348
      py      :     0.960919
  2 C s       :     3.317778  s :     3.317778
      pz      :     0.907884  p :     2.985474
      px      :     1.082497
      py      :     0.995092
  3 C s       :     3.263127  s :     3.263127
      pz      :     0.934645  p :     2.738715
      px      :     1.058533
      py      :     0.745537
  4 O s       :     3.936894  s :     3.936894
      pz      :     1.260705  p :     4.560289
      px      :     1.778350
      py      :     1.521234
  5 H s       :     0.852420  s :     0.852420
  6 H s       :     0.845323  s :     0.845323
  7 H s       :     0.856936  s :     0.856936
  8 H s       :     0.854263  s :     0.854263
  9 H s       :     0.845021  s :     0.845021
 10 H s       :     0.843546  s :     0.843546
 11 H s       :     0.854337  s :     0.854337
 12 C s       :     3.252164  s :     3.252164
      pz      :     0.856832  p :     2.756609
      px      :     0.922798
      py      :     0.976979
 13 H s       :     0.879943  s :     0.879943
 14 H s       :     0.851664  s :     0.851664
 15 O s       :     3.928631  s :     3.928631
      pz      :     1.534292  p :     4.594929
      px      :     1.318927
      py      :     1.741711
 16 C s       :     3.273954  s :     3.273954
      pz      :     0.777126  p :     2.669078
      px      :     0.940171
      py      :     0.951781
 17 C s       :     3.261415  s :     3.261415
      pz      :     0.958532  p :     2.648643
      px      :     0.779023
      py      :     0.911088
 18 C s       :     3.315770  s :     3.315770
      pz      :     0.949817  p :     2.991311
      px      :     1.033780
      py      :     1.007714
 19 C s       :     3.269484  s :     3.269484
      pz      :     1.002766  p :     2.758783
      px      :     1.062835
      py      :     0.693181
 20 O s       :     3.947281  s :     3.947281
      pz      :     1.594345  p :     4.579291
      px      :     1.755455
      py      :     1.229490
 21 H s       :     0.826406  s :     0.826406
 22 O s       :     3.920567  s :     3.920567
      pz      :     1.560049  p :     4.680544
      px      :     1.195547
      py      :     1.924949
 23 H s       :     0.825747  s :     0.825747
 24 H s       :     0.837680  s :     0.837680
 25 H s       :     0.856903  s :     0.856903
 26 H s       :     0.856650  s :     0.856650
 27 H s       :     0.850741  s :     0.850741
 28 H s       :     0.637110  s :     0.637110


                     *******************************
                     * LOEWDIN POPULATION ANALYSIS *
                     *******************************

----------------------
LOEWDIN ATOMIC CHARGES
----------------------
   0 C :    0.185767
   1 C :   -0.234018
   2 C :   -0.217809
   3 C :   -0.025807
   4 O :   -0.300669
   5 H :    0.099888
   6 H :    0.120549
   7 H :    0.113058
   8 H :    0.116152
   9 H :    0.111175
  10 H :    0.110273
  11 H :    0.104590
  12 C :   -0.042192
  13 H :    0.087480
  14 H :    0.104169
  15 O :   -0.337247
  16 C :    0.019217
  17 C :    0.038421
  18 C :   -0.244158
  19 C :   -0.037869
  20 O :   -0.330153
  21 H :    0.121846
  22 O :   -0.412815
  23 H :    0.124980
  24 H :    0.126842
  25 H :    0.110072
  26 H :    0.102369
  27 H :    0.104103
  28 H :    0.281785

-------------------------------
LOEWDIN REDUCED ORBITAL CHARGES
-------------------------------
  0 C s       :     2.952202  s :     2.952202
      pz      :     0.915851  p :     2.862031
      px      :     0.862593
      py      :     1.083587
  1 C s       :     2.978601  s :     2.978601
      pz      :     1.078389  p :     3.255417
      px      :     1.106102
      py      :     1.070926
  2 C s       :     2.971677  s :     2.971677
      pz      :     1.032906  p :     3.246132
      px      :     1.129627
      py      :     1.083599
  3 C s       :     2.983455  s :     2.983455
      pz      :     1.038276  p :     3.042351
      px      :     1.117634
      py      :     0.886441
  4 O s       :     3.593342  s :     3.593342
      pz      :     1.333533  p :     4.707327
      px      :     1.805216
      py      :     1.568578
  5 H s       :     0.900112  s :     0.900112
  6 H s       :     0.879451  s :     0.879451
  7 H s       :     0.886942  s :     0.886942
  8 H s       :     0.883848  s :     0.883848
  9 H s       :     0.888825  s :     0.888825
 10 H s       :     0.889727  s :     0.889727
 11 H s       :     0.895410  s :     0.895410
 12 C s       :     2.979625  s :     2.979625
      pz      :     0.971180  p :     3.062568
      px      :     1.032989
      py      :     1.058398
 13 H s       :     0.912520  s :     0.912520
 14 H s       :     0.895831  s :     0.895831
 15 O s       :     3.589062  s :     3.589062
      pz      :     1.589275  p :     4.748186
      px      :     1.378525
      py      :     1.780385
 16 C s       :     2.966632  s :     2.966632
      pz      :     0.928984  p :     3.014151
      px      :     1.038115
      py      :     1.047052
 17 C s       :     2.952526  s :     2.952526
      pz      :     1.058273  p :     3.009053
      px      :     0.909924
      py      :     1.040856
 18 C s       :     2.984060  s :     2.984060
      pz      :     1.059645  p :     3.260098
      px      :     1.109518
      py      :     1.090934
 19 C s       :     2.984944  s :     2.984944
      pz      :     1.090145  p :     3.052925
      px      :     1.127526
      py      :     0.835254
 20 O s       :     3.604114  s :     3.604114
      pz      :     1.639318  p :     4.726040
      px      :     1.786637
      py      :     1.300084
 21 H s       :     0.878154  s :     0.878154
 22 O s       :     3.613548  s :     3.613548
      pz      :     1.604463  p :     4.799267
      px      :     1.263308
      py      :     1.931496
 23 H s       :     0.875020  s :     0.875020
 24 H s       :     0.873158  s :     0.873158
 25 H s       :     0.889928  s :     0.889928
 26 H s       :     0.897631  s :     0.897631
 27 H s       :     0.895897  s :     0.895897
 28 H s       :     0.718215  s :     0.718215


                      *****************************
                      * MAYER POPULATION ANALYSIS *
                      *****************************

  NA   - Mulliken gross atomic population
  ZA   - Total nuclear charge
  QA   - Mulliken gross atomic charge
  VA   - Mayer's total valence
  BVA  - Mayer's bonded valence
  FA   - Mayer's free valence

  ATOM       NA         ZA         QA         VA         BVA        FA
  0 C      5.6784     6.0000     0.3216     3.6602     3.6602     0.0000
  1 C      6.2961     6.0000    -0.2961     3.7176     3.7176    -0.0000
  2 C      6.3033     6.0000    -0.3033     3.7604     3.7604     0.0000
  3 C      6.0018     6.0000    -0.0018     3.6579     3.6579    -0.0000
  4 O      8.4972     8.0000    -0.4972     1.8059     1.8059    -0.0000
  5 H      0.8524     1.0000     0.1476     0.9282     0.9282     0.0000
  6 H      0.8453     1.0000     0.1547     0.9321     0.9321    -0.0000
  7 H      0.8569     1.0000     0.1431     0.9419     0.9419    -0.0000
  8 H      0.8543     1.0000     0.1457     0.9366     0.9366     0.0000
  9 H      0.8450     1.0000     0.1550     0.9349     0.9349    -0.0000
 10 H      0.8435     1.0000     0.1565     0.9254     0.9254    -0.0000
 11 H      0.8543     1.0000     0.1457     0.9286     0.9286    -0.0000
 12 C      6.0088     6.0000    -0.0088     3.6188     3.6188     0.0000
 13 H      0.8799     1.0000     0.1201     0.9355     0.9355    -0.0000
 14 H      0.8517     1.0000     0.1483     0.9257     0.9257    -0.0000
 15 O      8.5236     8.0000    -0.5236     1.7260     1.7260     0.0000
 16 C      5.9430     6.0000     0.0570     3.5997     3.5997     0.0000
 17 C      5.9101     6.0000     0.0899     3.6308     3.6308    -0.0000
 18 C      6.3071     6.0000    -0.3071     3.6938     3.6938     0.0000
 19 C      6.0283     6.0000    -0.0283     3.6642     3.6642     0.0000
 20 O      8.5266     8.0000    -0.5266     1.7615     1.7615     0.0000
 21 H      0.8264     1.0000     0.1736     0.9323     0.9323     0.0000
 22 O      8.6011     8.0000    -0.6011     1.7465     1.7465     0.0000
 23 H      0.8257     1.0000     0.1743     0.9407     0.9407    -0.0000
 24 H      0.8377     1.0000     0.1623     0.9399     0.9399    -0.0000
 25 H      0.8569     1.0000     0.1431     0.9357     0.9357     0.0000
 26 H      0.8567     1.0000     0.1433     0.9279     0.9279    -0.0000
 27 H      0.8507     1.0000     0.1493     0.9283     0.9283    -0.0000
 28 H      0.6371     1.0000     0.3629     0.8335     0.8335    -0.0000

  Mayer bond orders larger than 0.100000
B(  0-C ,  1-C ) :   0.9282 B(  0-C ,  4-O ) :   0.9389 B(  0-C ,  5-H ) :   0.9233 
B(  0-C , 15-O ) :   0.8276 B(  1-C ,  2-C ) :   0.9500 B(  1-C ,  6-H ) :   0.9334 
B(  1-C ,  7-H ) :   0.9278 B(  2-C ,  3-C ) :   0.9538 B(  2-C ,  8-H ) :   0.9450 
B(  2-C ,  9-H ) :   0.9411 B(  3-C ,  4-O ) :   0.8358 B(  3-C , 10-H ) :   0.9337 
B(  3-C , 11-H ) :   0.9392 B( 12-C , 13-H ) :   0.9072 B( 12-C , 14-H ) :   0.9166 
B( 12-C , 15-O ) :   0.8332 B( 12-C , 16-C ) :   0.9060 B( 16-C , 17-C ) :   0.9119 
B( 16-C , 20-O ) :   0.8433 B( 16-C , 21-H ) :   0.9235 B( 17-C , 18-C ) :   0.9106 
B( 17-C , 22-O ) :   0.8915 B( 17-C , 23-H ) :   0.9213 B( 18-C , 19-C ) :   0.9402 
B( 18-C , 24-H ) :   0.9381 B( 18-C , 25-H ) :   0.9330 B( 19-C , 20-O ) :   0.8437 
B( 19-C , 26-H ) :   0.9359 B( 19-C , 27-H ) :   0.9380 B( 22-O , 28-H ) :   0.7954 


-------
TIMINGS
-------

Total SCF time: 0 days 0 hours 0 min 58 sec 

Total time                  ....      58.392 sec
Sum of individual times     ....      56.876 sec  ( 97.4%)

Fock matrix formation       ....      49.849 sec  ( 85.4%)
  XC integration            ....       5.544 sec  ( 11.1% of F)
    Basis function eval.    ....       1.773 sec  ( 32.0% of XC)
    Density eval.           ....       0.951 sec  ( 17.1% of XC)
    XC-Functional eval.     ....       0.378 sec  (  6.8% of XC)
    XC-Potential eval.      ....       1.051 sec  ( 19.0% of XC)
Diagonalization             ....       0.009 sec  (  0.0%)
Density matrix formation    ....       0.003 sec  (  0.0%)
Population analysis         ....       0.019 sec  (  0.0%)
Initial guess               ....       0.026 sec  (  0.0%)
Orbital Transformation      ....       0.000 sec  (  0.0%)
Orbital Orthonormalization  ....       0.005 sec  (  0.0%)
DIIS solution               ....       0.002 sec  (  0.0%)
SOSCF solution              ....       0.037 sec  (  0.1%)
Grid generation             ....       6.931 sec  ( 11.9%)

-------------------------   --------------------
FINAL SINGLE POINT ENERGY      -652.858489360426
-------------------------   --------------------

                                *** OPTIMIZATION RUN DONE ***

                            ***************************************
                            *     ORCA property calculations      *
                            ***************************************

                                    ---------------------
                                    Active property flags
                                    ---------------------
   (+) Dipole Moment


------------------------------------------------------------------------------
                       ORCA ELECTRIC PROPERTIES CALCULATION
------------------------------------------------------------------------------

Dipole Moment Calculation                       ... on
Quadrupole Moment Calculation                   ... off
Polarizability Calculation                      ... off
GBWName                                         ... project_8050/ensemble_165_195.gbw
Electron density file                           ... project_8050/ensemble_165_195.scfp
The origin for moment calculation is the CENTER OF MASS  = (-43.418917, 52.597826 87.425971)

-------------
DIPOLE MOMENT
-------------
                                X             Y             Z
Electronic contribution:     -4.31715      -5.35472       0.56692
Nuclear contribution   :      5.35940       6.65153      -1.34049
                        -----------------------------------------
Total Dipole Moment    :      1.04225       1.29681      -0.77356
                        -----------------------------------------
Magnitude (a.u.)       :      1.83478
Magnitude (Debye)      :      4.66364



--------------------
Rotational spectrum 
--------------------
 
Rotational constants in cm-1:     0.049172     0.014315     0.013865 
Rotational constants in MHz :  1474.142154   429.152863   415.656362 

 Dipole components along the rotational axes: 
x,y,z [a.u.] :    -0.169935    -0.275358    -1.806021 
x,y,z [Debye]:    -0.431939    -0.699904    -4.590541 

 

Timings for individual modules:

Sum of individual times         ...     1331.000 sec (=  22.183 min)
GTO integral calculation        ...       12.407 sec (=   0.207 min)   0.9 %
SCF iterations                  ...     1007.817 sec (=  16.797 min)  75.7 %
SCF Gradient evaluation         ...      307.989 sec (=   5.133 min)  23.1 %
Geometry relaxation             ...        2.788 sec (=   0.046 min)   0.2 %
                             ****ORCA TERMINATED NORMALLY****
TOTAL RUN TIME: 0 days 0 hours 22 minutes 25 seconds 89 msec
