
                                 *****************
                                 * O   R   C   A *
                                 *****************

           --- An Ab Initio, DFT and Semiempirical electronic structure package ---

                  #######################################################
                  #                        -***-                        #
                  #          Department of theory and spectroscopy      #
                  #               Directorship: Frank Neese             #
                  #        Max Planck Institute fuer Kohlenforschung    #
                  #                Kaiser Wilhelm Platz 1               #
                  #                 D-45470 Muelheim/Ruhr               #
                  #                      Germany                        #
                  #                                                     #
                  #                  All rights reserved                #
                  #                        -***-                        #
                  #######################################################


                         Program Version 4.2.0 -  RELEASE  -


 With contributions from (in alphabetic order):
   Daniel Aravena         : Magnetic Suceptibility
   Michael Atanasov       : Ab Initio Ligand Field Theory (pilot matlab implementation)
   Alexander A. Auer      : GIAO ZORA, VPT2
   Ute Becker             : Parallelization
   Giovanni Bistoni       : ED, misc. LED, open-shell LED, HFLED
   Martin Brehm           : Molecular dynamics
   Dmytro Bykov           : SCF Hessian
   Vijay G. Chilkuri      : MRCI spin determinant printing, contributions to CSF-ICE
   Dipayan Datta          : RHF DLPNO-CCSD density
   Achintya Kumar Dutta   : EOM-CC, STEOM-CC
   Dmitry Ganyushin       : Spin-Orbit,Spin-Spin,Magnetic field MRCI
   Miquel Garcia          : C-PCM Hessian, Gaussian charge scheme
   Yang Guo               : DLPNO-NEVPT2, CIM, IAO-localization
   Andreas Hansen         : Spin unrestricted coupled pair/coupled cluster methods
   Benjamin Helmich-Paris : CASSCF linear response (MC-RPA)
   Lee Huntington         : MR-EOM, pCC
   Robert Izsak           : Overlap fitted RIJCOSX, COSX-SCS-MP3, EOM
   Christian Kollmar      : KDIIS, OOCD, Brueckner-CCSD(T), CCSD density
   Simone Kossmann        : Meta GGA functionals, TD-DFT gradient, OOMP2, MP2 Hessian
   Martin Krupicka        : AUTO-CI
   Lucas Lang             : DCDCAS
   Dagmar Lenk            : GEPOL surface, SMD
   Dimitrios Liakos       : Extrapolation schemes; Compound Job, initial MDCI parallelization
   Dimitrios Manganas     : Further ROCIS development; embedding schemes
   Dimitrios Pantazis     : SARC Basis sets
   Taras Petrenko         : DFT Hessian,TD-DFT gradient, ASA, ECA, R-Raman, ABS, FL, XAS/XES, NRVS
   Peter Pinski           : DLPNO-MP2, DLPNO-MP2 Gradient
   Christoph Reimann      : Effective Core Potentials
   Marius Retegan         : Local ZFS, SOC
   Christoph Riplinger    : Optimizer, TS searches, QM/MM, DLPNO-CCSD(T), (RO)-DLPNO pert. Triples
   Tobias Risthaus        : Range-separated hybrids, TD-DFT gradient, RPA, STAB
   Michael Roemelt        : Original ROCIS implementation
   Masaaki Saitow         : Open-shell DLPNO-CCSD energy and density
   Barbara Sandhoefer     : DKH picture change effects
   Avijit Sen             : IP-ROCIS
   Kantharuban Sivalingam : CASSCF convergence, NEVPT2, FIC-MRCI
   Bernardo de Souza      : ESD, SOC TD-DFT
   Georgi Stoychev        : AutoAux, RI-MP2 NMR
   Willem Van den Heuvel  : Paramagnetic NMR
   Boris Wezisla          : Elementary symmetry handling
   Frank Wennmohs         : Technical directorship


 We gratefully acknowledge several colleagues who have allowed us to
 interface, adapt or use parts of their codes:
   Stefan Grimme, W. Hujo, H. Kruse,             : VdW corrections, initial TS optimization,
                  C. Bannwarth                     DFT functionals, gCP, sTDA/sTD-DF
   Ed Valeev, F. Pavosevic, A. Kumar             : LibInt (2-el integral package), F12 methods
   Garnet Chan, S. Sharma, J. Yang, R. Olivares  : DMRG
   Ulf Ekstrom                                   : XCFun DFT Library
   Mihaly Kallay                                 : mrcc  (arbitrary order and MRCC methods)
   Andreas Klamt, Michael Diedenhofen            : otool_cosmo (COSMO solvation model)
   Jiri Pittner, Ondrej Demel                    : Mk-CCSD
   Frank Weinhold                                : gennbo (NPA and NBO analysis)
   Christopher J. Cramer and Donald G. Truhlar   : smd solvation model
   Lars Goerigk                                  : TD-DFT with DH, B97 family of functionals
   V. Asgeirsson, H. Jonsson                     : NEB implementation
   FAccTs GmbH                                   : IRC, NEB, NEB-TS, Multilevel, MM, QM/MM, CI optimization
   S Lehtola, MJT Oliveira, MAL Marques          : LibXC Library


 Your calculation uses the libint2 library for the computation of 2-el integrals
 For citations please refer to: http://libint.valeyev.net

 Your ORCA version has been built with support for libXC version: 4.2.3
 For citations please refer to: https://tddft.org/programs/libxc/

 This ORCA versions uses:
   CBLAS   interface :  Fast vector & matrix operations
   LAPACKE interface :  Fast linear algebra routines
   SCALAPACK package :  Parallel linear algebra routines


----- Orbital basis set information -----
Your calculation utilizes the basis: 6-31G
   H-He, Li-Ne : W. J. Hehre, R. Ditchfield and J.A. Pople, J. Chem. Phys. 56, 2257 (1972).
                 Note: He and Ne are unpublished basis sets taken from the Gaussian program.
                 Note: Li and B from J. D. Dill and J. A. Pople, J. Chem. Phys. 62, 2921 (1975).
   Na - Ar     : M. M. Francl, W. J. Pietro, W. J. Hehre, J. S. Binkley, M. S. Gordon, 
                 D. J. DeFrees and J. A. Pople, J. Chem. Phys. 77, 3654 (1982).
   K - Zn      : V. A. Rassolov, J. A. Pople, M. A. Ratner, and T. L. Windus, J. Chem. Phys. 109, 1223 (1998).

================================================================================
                                        WARNINGS
                       Please study these warnings very carefully!
================================================================================


WARNING: Geometry Optimization
  ===> : Switching off AutoStart
         For restart on a previous wavefunction, please use MOREAD

INFO   : the flag for use of LIBINT has been found!

================================================================================
                                       INPUT FILE
================================================================================
NAME = project_8051/ensemble_120_225.inp
|  1> # Test redundant internal optimization
|  2> #
|  3> ! RKS B3LYP  Opt TightSCF SmallPrint
|  4> 
|  5> %basis
|  6>         Basis "6-31G"
|  7> end
|  8> 
|  9> %geom
| 10> Constraints
| 11> { D 4  0  15  12  120.0   C } # D for Dihedral angle
| 12> { D 0  15  12  16  225.0   C } # D for Dihedral angle
| 13> { D 0  4  3  2   C } # D for Dihedral angle
| 14> { D 4  3  2  1   C } # D for Dihedral angle
| 15> { D 3  2  1  0   C } # D for Dihedral angle
| 16> { D 2  1  0  4   C } # D for Dihedral angle
| 17> { D 1  0  4  3   C } # D for Dihedral angle
| 18> { D 16  20  19  18   C } # D for Dihedral angle
| 19> { D 20  19  18  17   C } # D for Dihedral angle
| 20> { D 19  18  17  16   C } # D for Dihedral angle
| 21> { D 18  17  16  20   C } # D for Dihedral angle
| 22> { D 17  16  20  19   C } # D for Dihedral angle
| 23> { D 15  12  16  20   C } # D for Dihedral angle
| 24> end
| 25> end
| 26> 
| 27> 
| 28> #%pal 
| 29> #nprocs 8
| 30> #end
| 31> 
| 32> * xyz 0 1
| 33> C  -21.048   26.222   46.251
| 34> C  -20.361   27.558   45.944
| 35> C  -20.329   28.222   47.341
| 36> C  -20.110   27.022   48.296
| 37> O  -20.473   25.807   47.535
| 38> H  -20.833   25.428   45.533
| 39> H  -19.344   27.382   45.576
| 40> H  -20.898   28.157   45.201
| 41> H  -19.543   28.978   47.434
| 42> H  -21.289   28.710   47.548
| 43> H  -20.733   27.082   49.195
| 44> H  -19.064   26.913   48.597
| 45> C  -23.119   27.818   46.058
| 46> H  -22.280   28.525   46.049
| 47> H  -23.595   27.838   45.069
| 48> O  -22.586   26.394   46.375
| 49> C  -24.164   28.314   47.096
| 50> C  -23.534   28.479   48.484
| 51> C  -22.806   29.837   48.338
| 52> C  -23.750   30.644   47.412
| 53> O  -24.632   29.660   46.749
| 54> H  -25.034   27.655   47.070
| 55> H  -24.317   28.540   49.247
| 56> O  -22.573   27.317   48.860
| 57> H  -22.638   30.333   49.299
| 58> H  -21.829   29.690   47.861
| 59> H  -23.206   31.210   46.649
| 60> H  -24.394   31.330   47.969
| 61> H  -21.780   27.238   48.109
| 62> *
| 63> 
| 64>                          ****END OF INPUT****
================================================================================

                       *****************************
                       * Geometry Optimization Run *
                       *****************************

Geometry optimization settings:
Update method            Update   .... BFGS
Choice of coordinates    CoordSys .... Z-matrix Internals
Initial Hessian          InHess   .... Almoef's Model

Convergence Tolerances:
Energy Change            TolE     ....  5.0000e-06 Eh
Max. Gradient            TolMAXG  ....  3.0000e-04 Eh/bohr
RMS Gradient             TolRMSG  ....  1.0000e-04 Eh/bohr
Max. Displacement        TolMAXD  ....  4.0000e-03 bohr
RMS Displacement         TolRMSD  ....  2.0000e-03 bohr
Strict Convergence                ....  False
------------------------------------------------------------------------------
                        ORCA OPTIMIZATION COORDINATE SETUP
------------------------------------------------------------------------------

The optimization will be done in new redundant internal coordinates
Making redundant internal coordinates   ...  (new redundants) done
Evaluating the initial hessian          ...  (Almloef) done
Evaluating the coordinates              ...  done
Calculating the B-matrix                .... done
Calculating the G-matrix                .... done
Diagonalizing the G-matrix              .... done
Imposing constraints:
 Iter   0:  RMS(Cart)=    0.0001059496 RMS(Int)=    0.0000289140
 Iter   1:  RMS(Cart)=    0.0000535979 RMS(Int)=    0.0000157147
 Iter   2:  RMS(Cart)=    0.0000281958 RMS(Int)=    0.0000092916
 Iter   3:  RMS(Cart)=    0.0000155144 RMS(Int)=    0.0000061325
 Iter   4:  RMS(Cart)=    0.0000089641 RMS(Int)=    0.0000045616
 Iter   5:  RMS(Cart)=    0.0000054502 RMS(Int)=    0.0000037616
 Iter   6:  RMS(Cart)=    0.0000034917 RMS(Int)=    0.0000033320
 Iter   7:  RMS(Cart)=    0.0000023609 RMS(Int)=    0.0000030802
 Iter   8:  RMS(Cart)=    0.0000016885 RMS(Int)=    0.0000029150
 Iter   9:  RMS(Cart)=    0.0000012794 RMS(Int)=    0.0000027931
 Iter  10:  RMS(Cart)=    0.0000010255 RMS(Int)=    0.0000026937
 Iter  11:  RMS(Cart)=    0.0000008644 RMS(Int)=    0.0000026068
 Iter  12:  RMS(Cart)=    0.0000007592 RMS(Int)=    0.0000025272
 Iter  13:  RMS(Cart)=    0.0000006876 RMS(Int)=    0.0000024524
 Iter  14:  RMS(Cart)=    0.0000006365 RMS(Int)=    0.0000023812
 Iter  15:  RMS(Cart)=    0.0000005980 RMS(Int)=    0.0000023128
 Iter  16:  RMS(Cart)=    0.0000005675 RMS(Int)=    0.0000022468
 Iter  17:  RMS(Cart)=    0.0000005422 RMS(Int)=    0.0000021831
 Iter  18:  RMS(Cart)=    0.0000005204 RMS(Int)=    0.0000021214
 Iter  19:  RMS(Cart)=    0.0000005010 RMS(Int)=    0.0000020617
 Iter  20:  RMS(Cart)=    0.0000004833 RMS(Int)=    0.0000020039
 Iter  21:  RMS(Cart)=    0.0000004670 RMS(Int)=    0.0000019479
 Iter  22:  RMS(Cart)=    0.0000004517 RMS(Int)=    0.0000018936
 Iter  23:  RMS(Cart)=    0.0000004373 RMS(Int)=    0.0000018411
 Iter  24:  RMS(Cart)=    0.0000004235 RMS(Int)=    0.0000017901
 Iter  25:  RMS(Cart)=    0.0000004103 RMS(Int)=    0.0000017407
 Iter  26:  RMS(Cart)=    0.0000003977 RMS(Int)=    0.0000016929
 Iter  27:  RMS(Cart)=    0.0000003856 RMS(Int)=    0.0000016465
 Iter  28:  RMS(Cart)=    0.0000003739 RMS(Int)=    0.0000016015
 Iter  29:  RMS(Cart)=    0.0000003626 RMS(Int)=    0.0000015579
 Iter  30:  RMS(Cart)=    0.0000003517 RMS(Int)=    0.0000015157
 Iter  31:  RMS(Cart)=    0.0000003411 RMS(Int)=    0.0000014747
 Iter  32:  RMS(Cart)=    0.0000003309 RMS(Int)=    0.0000014349
 Iter  33:  RMS(Cart)=    0.0000003211 RMS(Int)=    0.0000013964
 Iter  34:  RMS(Cart)=    0.0000003115 RMS(Int)=    0.0000013590
 Iter  35:  RMS(Cart)=    0.0000003023 RMS(Int)=    0.0000013228
 Iter  36:  RMS(Cart)=    0.0000002934 RMS(Int)=    0.0000012877
 Iter  37:  RMS(Cart)=    0.0000002847 RMS(Int)=    0.0000012536
 Iter  38:  RMS(Cart)=    0.0000002763 RMS(Int)=    0.0000012205
 Iter  39:  RMS(Cart)=    0.0000002682 RMS(Int)=    0.0000011884
 Iter  40:  RMS(Cart)=    0.0000002603 RMS(Int)=    0.0000011573
 Iter  41:  RMS(Cart)=    0.0000002527 RMS(Int)=    0.0000011271
 Iter  42:  RMS(Cart)=    0.0000002453 RMS(Int)=    0.0000010978
 Iter  43:  RMS(Cart)=    0.0000002382 RMS(Int)=    0.0000010693
 Iter  44:  RMS(Cart)=    0.0000002312 RMS(Int)=    0.0000010417
 Iter  45:  RMS(Cart)=    0.0000002245 RMS(Int)=    0.0000010149
 Iter  46:  RMS(Cart)=    0.0000002180 RMS(Int)=    0.0000009890
 Iter  47:  RMS(Cart)=    0.0000002117 RMS(Int)=    0.0000009637
 Iter  48:  RMS(Cart)=    0.0000002056 RMS(Int)=    0.0000009392
 Iter  49:  RMS(Cart)=    0.0000001997 RMS(Int)=    0.0000009155
 Iter  50:  RMS(Cart)=    0.0000001940 RMS(Int)=    0.0000008924
 Iter  51:  RMS(Cart)=    0.0000001884 RMS(Int)=    0.0000008700
 Iter  52:  RMS(Cart)=    0.0000001830 RMS(Int)=    0.0000008482
 Iter  53:  RMS(Cart)=    0.0000001778 RMS(Int)=    0.0000008271
 Iter  54:  RMS(Cart)=    0.0000001727 RMS(Int)=    0.0000008066
 Iter  55:  RMS(Cart)=    0.0000001678 RMS(Int)=    0.0000007866
 Iter  56:  RMS(Cart)=    0.0000001631 RMS(Int)=    0.0000007673
 Iter  57:  RMS(Cart)=    0.0000001584 RMS(Int)=    0.0000007485
 Iter  58:  RMS(Cart)=    0.0000001540 RMS(Int)=    0.0000007302
 Iter  59:  RMS(Cart)=    0.0000001496 RMS(Int)=    0.0000007125
 Iter  60:  RMS(Cart)=    0.0000001454 RMS(Int)=    0.0000006953
 Iter  61:  RMS(Cart)=    0.0000001413 RMS(Int)=    0.0000006786
 Iter  62:  RMS(Cart)=    0.0000001374 RMS(Int)=    0.0000006623
 Iter  63:  RMS(Cart)=    0.0000001335 RMS(Int)=    0.0000006465
 Iter  64:  RMS(Cart)=    0.0000001298 RMS(Int)=    0.0000006311
 Iter  65:  RMS(Cart)=    0.0000001262 RMS(Int)=    0.0000006162
 Iter  66:  RMS(Cart)=    0.0000001227 RMS(Int)=    0.0000006017
 Iter  67:  RMS(Cart)=    0.0000001193 RMS(Int)=    0.0000005876
 Iter  68:  RMS(Cart)=    0.0000001160 RMS(Int)=    0.0000005740
 Iter  69:  RMS(Cart)=    0.0000001128 RMS(Int)=    0.0000005606
 Iter  70:  RMS(Cart)=    0.0000001097 RMS(Int)=    0.0000005477
 Iter  71:  RMS(Cart)=    0.0000001067 RMS(Int)=    0.0000005351
 Iter  72:  RMS(Cart)=    0.0000001038 RMS(Int)=    0.0000005229
 Iter  73:  RMS(Cart)=    0.0000001009 RMS(Int)=    0.0000005110
 Iter  74:  RMS(Cart)=    0.0000000982 RMS(Int)=    0.0000004994
 Iter  75:  RMS(Cart)=    0.0000000955 RMS(Int)=    0.0000004882
 Iter  76:  RMS(Cart)=    0.0000000929 RMS(Int)=    0.0000004773
 Iter  77:  RMS(Cart)=    0.0000000904 RMS(Int)=    0.0000004666
 Iter  78:  RMS(Cart)=    0.0000000880 RMS(Int)=    0.0000004563
 Iter  79:  RMS(Cart)=    0.0000000856 RMS(Int)=    0.0000004462
 Iter  80:  RMS(Cart)=    0.0000000833 RMS(Int)=    0.0000004364
 Iter  81:  RMS(Cart)=    0.0000000811 RMS(Int)=    0.0000004269
 Iter  82:  RMS(Cart)=    0.0000000789 RMS(Int)=    0.0000004177
 Iter  83:  RMS(Cart)=    0.0000000768 RMS(Int)=    0.0000004086
 Iter  84:  RMS(Cart)=    0.0000000748 RMS(Int)=    0.0000003999
 Iter  85:  RMS(Cart)=    0.0000000728 RMS(Int)=    0.0000003913
 Iter  86:  RMS(Cart)=    0.0000000709 RMS(Int)=    0.0000003830
 Iter  87:  RMS(Cart)=    0.0000000690 RMS(Int)=    0.0000003749
 Iter  88:  RMS(Cart)=    0.0000000672 RMS(Int)=    0.0000003671
 Iter  89:  RMS(Cart)=    0.0000000654 RMS(Int)=    0.0000003594
 Iter  90:  RMS(Cart)=    0.0000000637 RMS(Int)=    0.0000003520
 Iter  91:  RMS(Cart)=    0.0000000620 RMS(Int)=    0.0000003447
 Iter  92:  RMS(Cart)=    0.0000000604 RMS(Int)=    0.0000003376
 Iter  93:  RMS(Cart)=    0.0000000588 RMS(Int)=    0.0000003307
 Iter  94:  RMS(Cart)=    0.0000000573 RMS(Int)=    0.0000003240
 Iter  95:  RMS(Cart)=    0.0000000558 RMS(Int)=    0.0000003175
 Iter  96:  RMS(Cart)=    0.0000000544 RMS(Int)=    0.0000003111
 Iter  97:  RMS(Cart)=    0.0000000530 RMS(Int)=    0.0000003049
 Iter  98:  RMS(Cart)=    0.0000000516 RMS(Int)=    0.0000002989
 Iter  99:  RMS(Cart)=    0.0000000503 RMS(Int)=    0.0000002930
 RMS(Cart) too big - taking linear step, building new B-matrix and trying again
Imposing constraints:
 Iter   0:  RMS(Cart)=    0.0000535982 RMS(Int)=    0.0000157147
 Iter   1:  RMS(Cart)=    0.0000281959 RMS(Int)=    0.0000092915
 Iter   2:  RMS(Cart)=    0.0000155144 RMS(Int)=    0.0000061324
 Iter   3:  RMS(Cart)=    0.0000089641 RMS(Int)=    0.0000045615
 Iter   4:  RMS(Cart)=    0.0000054502 RMS(Int)=    0.0000037615
 Iter   5:  RMS(Cart)=    0.0000034916 RMS(Int)=    0.0000033318
 Iter   6:  RMS(Cart)=    0.0000023608 RMS(Int)=    0.0000030800
 Iter   7:  RMS(Cart)=    0.0000016885 RMS(Int)=    0.0000029148
 Iter   8:  RMS(Cart)=    0.0000012794 RMS(Int)=    0.0000027929
 Iter   9:  RMS(Cart)=    0.0000010254 RMS(Int)=    0.0000026936
 Iter  10:  RMS(Cart)=    0.0000008644 RMS(Int)=    0.0000026066
 Iter  11:  RMS(Cart)=    0.0000007591 RMS(Int)=    0.0000025271
 Iter  12:  RMS(Cart)=    0.0000006875 RMS(Int)=    0.0000024523
 Iter  13:  RMS(Cart)=    0.0000006364 RMS(Int)=    0.0000023811
 Iter  14:  RMS(Cart)=    0.0000005979 RMS(Int)=    0.0000023127
 Iter  15:  RMS(Cart)=    0.0000005674 RMS(Int)=    0.0000022467
 Iter  16:  RMS(Cart)=    0.0000005421 RMS(Int)=    0.0000021830
 Iter  17:  RMS(Cart)=    0.0000005203 RMS(Int)=    0.0000021213
 Iter  18:  RMS(Cart)=    0.0000005009 RMS(Int)=    0.0000020616
 Iter  19:  RMS(Cart)=    0.0000004833 RMS(Int)=    0.0000020038
 Iter  20:  RMS(Cart)=    0.0000004670 RMS(Int)=    0.0000019478
 Iter  21:  RMS(Cart)=    0.0000004517 RMS(Int)=    0.0000018935
 Iter  22:  RMS(Cart)=    0.0000004372 RMS(Int)=    0.0000018409
 Iter  23:  RMS(Cart)=    0.0000004235 RMS(Int)=    0.0000017900
 Iter  24:  RMS(Cart)=    0.0000004103 RMS(Int)=    0.0000017406
 Iter  25:  RMS(Cart)=    0.0000003977 RMS(Int)=    0.0000016928
 Iter  26:  RMS(Cart)=    0.0000003856 RMS(Int)=    0.0000016464
 Iter  27:  RMS(Cart)=    0.0000003739 RMS(Int)=    0.0000016014
 Iter  28:  RMS(Cart)=    0.0000003626 RMS(Int)=    0.0000015578
 Iter  29:  RMS(Cart)=    0.0000003517 RMS(Int)=    0.0000015156
 Iter  30:  RMS(Cart)=    0.0000003411 RMS(Int)=    0.0000014746
 Iter  31:  RMS(Cart)=    0.0000003309 RMS(Int)=    0.0000014348
 Iter  32:  RMS(Cart)=    0.0000003211 RMS(Int)=    0.0000013963
 Iter  33:  RMS(Cart)=    0.0000003115 RMS(Int)=    0.0000013589
 Iter  34:  RMS(Cart)=    0.0000003023 RMS(Int)=    0.0000013227
 Iter  35:  RMS(Cart)=    0.0000002933 RMS(Int)=    0.0000012876
 Iter  36:  RMS(Cart)=    0.0000002847 RMS(Int)=    0.0000012535
 Iter  37:  RMS(Cart)=    0.0000002763 RMS(Int)=    0.0000012204
 Iter  38:  RMS(Cart)=    0.0000002682 RMS(Int)=    0.0000011883
 Iter  39:  RMS(Cart)=    0.0000002603 RMS(Int)=    0.0000011572
 Iter  40:  RMS(Cart)=    0.0000002527 RMS(Int)=    0.0000011270
 Iter  41:  RMS(Cart)=    0.0000002453 RMS(Int)=    0.0000010977
 Iter  42:  RMS(Cart)=    0.0000002381 RMS(Int)=    0.0000010692
 Iter  43:  RMS(Cart)=    0.0000002312 RMS(Int)=    0.0000010416
 Iter  44:  RMS(Cart)=    0.0000002245 RMS(Int)=    0.0000010149
 Iter  45:  RMS(Cart)=    0.0000002180 RMS(Int)=    0.0000009889
CONVERGED
Small eigenvalue found = 5.306e-03
Small eigenvalue found = 1.014e-02
Small eigenvalue found = 1.224e-02
The first mode is                       ....   91
The number of degrees of freedom        ....   81
Storing new coordinates                 .... done

    -----------------------------------------------------------------
                    Redundant Internal Coordinates


    -----------------------------------------------------------------
         Definition                    Initial Value    Approx d2E/dq
    -----------------------------------------------------------------
      1. B(C   1,C   0)                  1.5333         0.369027   
      2. B(C   2,C   1)                  1.5471         0.350825   
      3. B(C   3,C   2)                  1.5492         0.348147   
      4. B(O   4,C   0)                  1.4668         0.422031   
      5. B(O   4,C   3)                  1.4789         0.403699   
      6. B(H   5,C   0)                  1.0919         0.357632   
      7. B(H   6,C   1)                  1.0958         0.352561   
      8. B(H   7,C   1)                  1.0951         0.353431   
      9. B(H   8,C   2)                  1.0945         0.354166   
     10. B(H   9,C   2)                  1.0966         0.351438   
     11. B(H  10,C   3)                  1.0954         0.353010   
     12. B(H  11,C   3)                  1.0939         0.354989   
     13. B(H  13,C  12)                  1.0972         0.350698   
     14. B(H  14,C  12)                  1.0978         0.349968   
     15. B(O  15,C   0)                  1.5525         0.307993   
     16. B(O  15,C  12)                  1.5532         0.307284   
     17. B(C  16,C  12)                  1.5542         0.341818   
     18. B(C  17,C  16)                  1.5332         0.369224   
     19. B(C  18,C  17)                  1.5477         0.350020   
     20. B(C  19,C  18)                  1.5491         0.348199   
     21. B(O  20,C  16)                  1.4667         0.422219   
     22. B(O  20,C  19)                  1.4784         0.404384   
     23. B(H  21,C  16)                  1.0917         0.357829   
     24. B(H  22,C  17)                  1.0950         0.353573   
     25. B(O  23,C  17)                  1.5541         0.306273   
     26. B(H  24,C  18)                  1.0944         0.354297   
     27. B(H  25,C  18)                  1.0971         0.350806   
     28. B(H  26,C  19)                  1.0947         0.353881   
     29. B(H  27,C  19)                  1.0934         0.355596   
     30. B(H  28,O  23)                  1.0950         0.316617   
     31. A(O   4,C   0,H   5)          107.0177         0.328541   
     32. A(C   1,C   0,O  15)          111.3051         0.348740   
     33. A(C   1,C   0,O   4)          104.2506         0.367935   
     34. A(O   4,C   0,O  15)          110.4724         0.354548   
     35. A(C   1,C   0,H   5)          114.4400         0.323302   
     36. A(H   5,C   0,O  15)          109.1549         0.312058   
     37. A(C   0,C   1,C   2)          101.6784         0.358729   
     38. A(C   2,C   1,H   7)          112.8330         0.320016   
     39. A(C   2,C   1,H   6)          110.6704         0.319888   
     40. A(C   0,C   1,H   6)          110.0680         0.322546   
     41. A(H   6,C   1,H   7)          108.3679         0.289027   
     42. A(C   0,C   1,H   7)          113.1246         0.322677   
     43. A(C   1,C   2,H   8)          112.8314         0.320125   
     44. A(C   1,C   2,C   3)          103.1281         0.355196   
     45. A(C   1,C   2,H   9)          110.0796         0.319721   
     46. A(C   3,C   2,H   9)          110.6148         0.319321   
     47. A(C   3,C   2,H   8)          112.4034         0.319725   
     48. A(H   8,C   2,H   9)          107.7730         0.288977   
     49. A(O   4,C   3,H  10)          109.1300         0.325449   
     50. A(C   2,C   3,H  10)          112.5254         0.319554   
     51. A(C   2,C   3,O   4)          106.5270         0.361529   
     52. A(O   4,C   3,H  11)          107.1239         0.325748   
     53. A(H  10,C   3,H  11)          108.8727         0.289284   
     54. A(C   2,C   3,H  11)          112.4568         0.319846   
     55. A(C   0,O   4,C   3)          108.3131         0.371320   
     56. A(H  14,C  12,C  16)          107.7219         0.318149   
     57. A(H  13,C  12,H  14)          108.2062         0.288343   
     58. A(H  13,C  12,O  15)          109.2719         0.310955   
     59. A(H  14,C  12,O  15)          110.4485         0.310851   
     60. A(O  15,C  12,C  16)          112.7695         0.344143   
     61. A(H  13,C  12,C  16)          108.2961         0.318257   
     62. A(C   0,O  15,C  12)          115.1648         0.336146   
     63. A(C  12,C  16,C  17)          111.2657         0.357178   
     64. A(C  12,C  16,O  20)          110.4515         0.363169   
     65. A(C  17,C  16,O  20)          104.2729         0.367997   
     66. A(C  12,C  16,H  21)          109.1031         0.319304   
     67. A(C  17,C  16,H  21)          114.4551         0.323360   
     68. A(O  20,C  16,H  21)          107.1001         0.328595   
     69. A(C  16,C  17,C  18)          101.6716         0.358621   
     70. A(C  16,C  17,H  22)          110.0593         0.322726   
     71. A(C  18,C  17,H  22)          110.6833         0.319917   
     72. A(C  16,C  17,O  23)          113.1202         0.348443   
     73. A(C  18,C  17,O  23)          112.8311         0.345325   
     74. A(H  22,C  17,O  23)          108.3760         0.311200   
     75. A(C  17,C  18,C  19)          103.1109         0.355067   
     76. A(C  17,C  18,H  24)          112.7693         0.320024   
     77. A(C  19,C  18,H  24)          112.4778         0.319752   
     78. A(C  17,C  18,H  25)          110.0182         0.319507   
     79. A(C  19,C  18,H  25)          110.6441         0.319235   
     80. A(H  24,C  18,H  25)          107.8061         0.288912   
     81. A(C  18,C  19,O  20)          106.5515         0.361643   
     82. A(C  18,C  19,H  26)          112.5279         0.319690   
     83. A(O  20,C  19,H  26)          109.1480         0.325671   
     84. A(C  18,C  19,H  27)          112.4099         0.319943   
     85. A(O  20,C  19,H  27)          107.1362         0.325930   
     86. A(H  26,C  19,H  27)          108.8654         0.289473   
     87. A(C  16,O  20,C  19)          108.3213         0.371457   
     88. A(C  17,O  23,H  28)          109.6228         0.303191   
     89. D(H   7,C   1,C   0,H   5)     82.1531         0.010890   
     90. D(C   2,C   1,C   0,O  15)     79.0883         0.010890   
     91. D(H   7,C   1,C   0,O  15)    -42.1861         0.010890   
     92. D(H   6,C   1,C   0,O   4)     77.3249         0.010890   
     93. D(H   6,C   1,C   0,O  15)   -163.5722         0.010890   
     94. D(H   6,C   1,C   0,H   5)    -39.2330         0.010890   
     95. D(H   7,C   1,C   0,O   4)   -161.2891         0.010890   
     96. D(C   2,C   1,C   0,O   4)    -40.0146         0.010890 C 
     97. D(C   2,C   1,C   0,H   5)   -156.5725         0.010890   
     98. D(H   9,C   2,C   1,H   6)    160.0777         0.009912   
     99. D(H   8,C   2,C   1,C   0)    156.5478         0.009912   
    100. D(H   8,C   2,C   1,H   6)     39.6449         0.009912   
    101. D(C   3,C   2,C   1,C   0)     35.0267         0.009912 C 
    102. D(H   8,C   2,C   1,H   7)    -81.9751         0.009912   
    103. D(H   9,C   2,C   1,C   0)    -83.0195         0.009912   
    104. D(C   3,C   2,C   1,H   6)    -81.8761         0.009912   
    105. D(H   9,C   2,C   1,H   7)     38.4577         0.009912   
    106. D(C   3,C   2,C   1,H   7)    156.5039         0.009912   
    107. D(H  11,C   3,C   2,H   9)   -143.4627         0.009774   
    108. D(O   4,C   3,C   2,H   8)   -140.0068         0.009774   
    109. D(O   4,C   3,C   2,H   9)     99.4740         0.009774   
    110. D(H  10,C   3,C   2,C   1)   -137.7432         0.009774   
    111. D(H  10,C   3,C   2,H   8)    100.4467         0.009774   
    112. D(H  10,C   3,C   2,H   9)    -20.0725         0.009774   
    113. D(H  11,C   3,C   2,C   1)     98.8666         0.009774   
    114. D(O   4,C   3,C   2,C   1)    -18.1967         0.009774 C 
    115. D(H  11,C   3,C   2,H   8)    -22.9435         0.009774   
    116. D(C   3,O   4,C   0,C   1)     29.5920         0.014035 C 
    117. D(C   3,O   4,C   0,H   5)    151.2035         0.014035   
    118. D(C   3,O   4,C   0,O  15)    -90.0752         0.014035   
    119. D(C   0,O   4,C   3,C   2)     -6.8730         0.012866 C 
    120. D(C   0,O   4,C   3,H  10)    114.8547         0.012866   
    121. D(C   0,O   4,C   3,H  11)   -127.4270         0.012866   
    122. D(C   0,O  15,C  12,C  16)   -135.0000         0.007762 C 
    123. D(C  12,O  15,C   0,O   4)    120.0000         0.007793 C 
    124. D(C  12,O  15,C   0,H   5)   -122.5879         0.007793   
    125. D(C   0,O  15,C  12,H  14)    104.4143         0.007762   
    126. D(C   0,O  15,C  12,H  13)    -14.5073         0.007762   
    127. D(C  12,O  15,C   0,C   1)      4.6828         0.007793   
    128. D(C  17,C  16,C  12,H  13)    -56.3696         0.009451   
    129. D(H  21,C  16,C  12,H  14)     59.5918         0.009451   
    130. D(C  17,C  16,C  12,O  15)     64.6805         0.009451   
    131. D(O  20,C  16,C  12,H  13)     58.9388         0.009451   
    132. D(O  20,C  16,C  12,H  14)    -57.8772         0.009451   
    133. D(O  20,C  16,C  12,O  15)    179.9889         0.009451 C 
    134. D(C  17,C  16,C  12,H  14)   -173.1856         0.009451   
    135. D(H  21,C  16,C  12,H  13)    176.4079         0.009451   
    136. D(H  21,C  16,C  12,O  15)    -62.5420         0.009451   
    137. D(C  18,C  17,C  16,C  12)     79.0972         0.010901   
    138. D(C  18,C  17,C  16,O  20)    -39.9740         0.010901 C 
    139. D(C  18,C  17,C  16,H  21)   -156.6537         0.010901   
    140. D(H  22,C  17,C  16,C  12)   -163.5557         0.010901   
    141. D(H  22,C  17,C  16,O  20)     77.3731         0.010901   
    142. D(H  22,C  17,C  16,H  21)    -39.3066         0.010901   
    143. D(O  23,C  17,C  16,C  12)    -42.1685         0.010901   
    144. D(O  23,C  17,C  16,O  20)   -161.2397         0.010901   
    145. D(O  23,C  17,C  16,H  21)     82.0805         0.010901   
    146. D(H  24,C  18,C  17,O  23)    -81.9726         0.009871   
    147. D(C  19,C  18,C  17,H  22)    -81.9011         0.009871   
    148. D(C  19,C  18,C  17,O  23)    156.4604         0.009871   
    149. D(H  24,C  18,C  17,C  16)    156.5606         0.009871   
    150. D(C  19,C  18,C  17,C  16)     34.9936         0.009871 C 
    151. D(H  24,C  18,C  17,H  22)     39.6659         0.009871   
    152. D(H  25,C  18,C  17,C  16)    -83.0492         0.009871   
    153. D(H  25,C  18,C  17,H  22)    160.0561         0.009871   
    154. D(H  25,C  18,C  17,O  23)     38.4176         0.009871   
    155. D(H  27,C  19,C  18,H  25)   -143.5214         0.009776   
    156. D(O  20,C  19,C  18,H  24)   -139.9564         0.009776   
    157. D(O  20,C  19,C  18,H  25)     99.4108         0.009776   
    158. D(H  26,C  19,C  18,C  17)   -137.7784         0.009776   
    159. D(H  26,C  19,C  18,H  24)    100.4577         0.009776   
    160. D(H  26,C  19,C  18,H  25)    -20.1751         0.009776   
    161. D(H  27,C  19,C  18,C  17)     98.8753         0.009776   
    162. D(O  20,C  19,C  18,C  17)    -18.1925         0.009776 C 
    163. D(H  27,C  19,C  18,H  24)    -22.8887         0.009776   
    164. D(C  19,O  20,C  16,C  12)    -90.0618         0.014048   
    165. D(C  19,O  20,C  16,C  17)     29.5612         0.014048 C 
    166. D(C  19,O  20,C  16,H  21)    151.2419         0.014048   
    167. D(C  16,O  20,C  19,C  18)     -6.8470         0.012908 C 
    168. D(C  16,O  20,C  19,H  26)    114.9085         0.012908   
    169. D(C  16,O  20,C  19,H  27)   -127.3656         0.012908   
    170. D(H  28,O  23,C  17,C  16)     57.6965         0.007717   
    171. D(H  28,O  23,C  17,C  18)    -57.0381         0.007717   
    172. D(H  28,O  23,C  17,H  22)   -179.9720         0.007717   
    -----------------------------------------------------------------

Number of atoms                         .... 29
Number of degrees of freedom            .... 172

Time needed for optimization step       :     4.36 sec

         *************************************************************
         *                GEOMETRY OPTIMIZATION CYCLE   1            *
         *************************************************************
---------------------------------
CARTESIAN COORDINATES (ANGSTROEM)
---------------------------------
  C    -21.048002   26.222081   46.250958
  C    -20.361033   27.558127   45.944124
  C    -20.329078   28.221951   47.341204
  C    -20.110070   27.021847   48.296075
  O    -20.473026   25.806923   47.534921
  H    -20.832970   25.428150   45.532892
  H    -19.344019   27.382198   45.576128
  H    -20.898029   28.157199   45.201180
  H    -19.543098   28.977958   47.434311
  H    -21.289095   28.709902   47.548241
  H    -20.733092   27.081730   49.195068
  H    -19.064074   26.912838   48.597087
  C    -23.119100   27.817953   46.057946
  H    -22.280144   28.525003   46.048878
  H    -23.595158   27.837895   45.068973
  O    -22.586014   26.393984   46.374943
  C    -24.163989   28.313965   47.096053
  C    -23.533834   28.479038   48.483972
  C    -22.805896   29.837055   48.337831
  C    -23.750027   30.643990   47.411908
  O    -24.632074   29.659935   46.749049
  H    -25.033973   27.654940   47.070176
  H    -24.316748   28.540046   49.247061
  O    -22.572756   27.317083   48.859908
  H    -22.637800   30.333099   49.298792
  H    -21.828946   29.690066   47.860724
  H    -23.206132   31.209976   46.648822
  H    -24.393984   31.329993   47.968954
  H    -21.779840   27.238076   48.108820

----------------------------
CARTESIAN COORDINATES (A.U.)
----------------------------
  NO LB      ZA    FRAG     MASS         X           Y           Z
   0 C     6.0000    0    12.011  -39.774960   49.552553   87.401644
   1 C     6.0000    0    12.011  -38.476775   52.077313   86.821813
   2 C     6.0000    0    12.011  -38.416390   53.331758   89.461911
   3 C     6.0000    0    12.011  -38.002524   51.063891   91.266355
   4 O     8.0000    0    15.999  -38.688412   48.768016   89.827982
   5 H     1.0000    0     1.008  -39.368608   48.052240   86.044695
   6 H     1.0000    0     1.008  -36.554898   51.744855   86.126401
   7 H     1.0000    0     1.008  -39.491552   53.209396   85.417851
   8 H     1.0000    0     1.008  -36.931103   54.760405   89.637858
   9 H     1.0000    0     1.008  -40.230559   54.253852   89.853154
  10 H     1.0000    0     1.008  -39.179865   51.177053   92.965205
  11 H     1.0000    0     1.008  -36.025879   50.857893   91.835186
  12 C     6.0000    0    12.011  -43.688768   52.568312   87.036905
  13 H     1.0000    0     1.008  -42.103370   53.904444   87.019768
  14 H     1.0000    0     1.008  -44.588387   52.605998   85.168016
  15 O     8.0000    0    15.999  -42.681382   49.877401   87.635941
  16 C     6.0000    0    12.011  -45.663321   53.505639   88.998642
  17 C     6.0000    0    12.011  -44.472502   53.817583   91.621429
  18 C     6.0000    0    12.011  -43.096897   56.383863   91.345263
  19 C     6.0000    0    12.011  -44.881047   57.908749   89.595521
  20 O     8.0000    0    15.999  -46.547874   56.049154   88.342899
  21 H     1.0000    0     1.008  -47.307354   52.260262   88.949742
  22 H     1.0000    0     1.008  -45.951993   53.932870   93.063457
  23 O     8.0000    0    15.999  -42.656327   51.621805   92.331846
  24 H     1.0000    0     1.008  -42.779242   57.321251   93.161215
  25 H     1.0000    0     1.008  -41.250730   56.106094   90.443661
  26 H     1.0000    0     1.008  -43.853234   58.978307   88.153498
  27 H     1.0000    0     1.008  -46.097948   59.205106   90.648186
  28 H     1.0000    0     1.008  -41.157933   51.472504   90.912494

--------------------------------
INTERNAL COORDINATES (ANGSTROEM)
--------------------------------
 C      0   0   0     0.000000000000     0.00000000     0.00000000
 C      1   0   0     1.533334275362     0.00000000     0.00000000
 C      2   1   0     1.547103422529   101.67907390     0.00000000
 C      3   2   1     1.549188819996   103.12737509    35.02687180
 O      1   2   3     1.466801281701   104.24948604   319.98542309
 H      1   2   3     1.091872245274   114.43876658   203.42640133
 H      2   1   3     1.095759553917   110.06782188   117.34000099
 H      2   1   3     1.095088580892   113.12442239   238.72597460
 H      3   2   1     1.094523183857   112.83161078   156.54780790
 H      3   2   1     1.096628013503   110.07982737   276.98070077
 H      4   3   2     1.095413164062   112.52534669   222.25678475
 H      4   3   2     1.093891219455   112.45670684    98.86663270
 C      8   2   1     2.404622839449    97.70093371    43.53917095
 H     13   8   2     1.097201440028    36.86553653    98.73233369
 H     13   8   2     1.097769101405    94.40710115   213.53849922
 O      1   2   3     1.552547583812   111.30349807    79.08752829
 C     13   8   2     1.554183065150   144.49564061    84.22111574
 C     17  13   8     1.533189159889   111.26538014   312.73963910
 C     18  17  13     1.547728658389   101.67178569    79.09700304
 C     19  18  17     1.549148475776   103.11071929    34.99363149
 O     17  13   8     1.466679583276   110.45160518    68.04758969
 H     17  13   8     1.091722034219   109.10341794   185.51736082
 H     18  17  13     1.094978995232   110.05929082   196.44422239
 O     18  17  13     1.554072392136   113.12017001   317.83138651
 H     19  18  17     1.094422678859   112.76937363   156.56060121
 H     19  18  17     1.097117587135   110.01824231   276.95089334
 H     20  19  18     1.094742435461   112.52794299   222.22159313
 H     20  19  18     1.093426266376   112.40982911    98.87527722
 H     24  18  17     1.095030136572   109.62281210    57.69657652

---------------------------
INTERNAL COORDINATES (A.U.)
---------------------------
 C      0   0   0     0.000000000000     0.00000000     0.00000000
 C      1   0   0     2.897581852189     0.00000000     0.00000000
 C      2   1   0     2.923601769431   101.67907390     0.00000000
 C      3   2   1     2.927542599525   103.12737509    35.02687180
 O      1   2   3     2.771852715300   104.24948604   319.98542309
 H      1   2   3     2.063339516798   114.43876658   203.42640133
 H      2   1   3     2.070685465531   110.06782188   117.34000099
 H      2   1   3     2.069417510270   113.12442239   238.72597460
 H      3   2   1     2.068349064717   112.83161078   156.54780790
 H      3   2   1     2.072326616307   110.07982737   276.98070077
 H      4   3   2     2.070030883569   112.52534669   222.25678475
 H      4   3   2     2.067154825070   112.45670684    98.86663270
 C      8   2   1     4.544078621931    97.70093371    43.53917095
 H     13   8   2     2.073410235397    36.86553653    98.73233369
 H     13   8   2     2.074482959937    94.40710115   213.53849922
 O      1   2   3     2.933889743286   111.30349807    79.08752829
 C     13   8   2     2.936980355112   144.49564061    84.22111574
 C     17  13   8     2.897307623686   111.26538014   312.73963910
 C     18  17  13     2.924783293977   101.67178569    79.09700304
 C     19  18  17     2.927466359999   103.11071929    34.99363149
 O     17  13   8     2.771622738606   110.45160518    68.04758969
 H     17  13   8     2.063055659042   109.10341794   185.51736082
 H     18  17  13     2.069210423385   110.05929082   196.44422239
 O     18  17  13     2.936771213425   113.12017001   317.83138651
 H     19  18  17     2.068159137795   112.76937363   156.56060121
 H     19  18  17     2.073251776393   110.01824231   276.95089334
 H     20  19  18     2.068763390204   112.52794299   222.22159313
 H     20  19  18     2.066276191086   112.40982911    98.87527722
 H     24  18  17     2.069307066511   109.62281210    57.69657652

---------------------
BASIS SET INFORMATION
---------------------
There are 3 groups of distinct atoms

 Group   1 Type C   : 10s4p contracted to 3s2p pattern {631/31}
 Group   2 Type O   : 10s4p contracted to 3s2p pattern {631/31}
 Group   3 Type H   : 4s contracted to 2s pattern {31}

Atom   0C    basis set group =>   1
Atom   1C    basis set group =>   1
Atom   2C    basis set group =>   1
Atom   3C    basis set group =>   1
Atom   4O    basis set group =>   2
Atom   5H    basis set group =>   3
Atom   6H    basis set group =>   3
Atom   7H    basis set group =>   3
Atom   8H    basis set group =>   3
Atom   9H    basis set group =>   3
Atom  10H    basis set group =>   3
Atom  11H    basis set group =>   3
Atom  12C    basis set group =>   1
Atom  13H    basis set group =>   3
Atom  14H    basis set group =>   3
Atom  15O    basis set group =>   2
Atom  16C    basis set group =>   1
Atom  17C    basis set group =>   1
Atom  18C    basis set group =>   1
Atom  19C    basis set group =>   1
Atom  20O    basis set group =>   2
Atom  21H    basis set group =>   3
Atom  22H    basis set group =>   3
Atom  23O    basis set group =>   2
Atom  24H    basis set group =>   3
Atom  25H    basis set group =>   3
Atom  26H    basis set group =>   3
Atom  27H    basis set group =>   3
Atom  28H    basis set group =>   3
------------------------------------------------------------------------------
                           ORCA GTO INTEGRAL CALCULATION
------------------------------------------------------------------------------

                         BASIS SET STATISTICS AND STARTUP INFO

 # of primitive gaussian shells          ...  246
 # of primitive gaussian functions       ...  350
 # of contracted shells                  ...   97
 # of contracted basis functions         ...  149
 Highest angular momentum                ...    1
 Maximum contraction depth               ...    6
 Integral package used                   ... LIBINT
 Integral threshhold            Thresh   ...  2.500e-11
 Primitive cut-off              TCut     ...  2.500e-12


------------------------------ INTEGRAL EVALUATION ----------------------------


 * One electron integrals 
 Pre-screening matrix                    ... done
 Shell pair data                         ... done (   0.002 sec)

-------------------------------------------------------------------------------
                                 ORCA SCF
-------------------------------------------------------------------------------

------------
SCF SETTINGS
------------
Hamiltonian:
 Density Functional     Method          .... DFT(GTOs)
 Exchange Functional    Exchange        .... B88
   X-Alpha parameter    XAlpha          ....  0.666667
   Becke's b parameter  XBeta           ....  0.004200
 Correlation Functional Correlation     .... LYP
 LDA part of GGA corr.  LDAOpt          .... VWN-5
 Gradients option       PostSCFGGA      .... off
 Hybrid DFT is turned on
   Fraction HF Exchange ScalHFX         ....  0.200000
   Scaling of DF-GGA-X  ScalDFX         ....  0.720000
   Scaling of DF-GGA-C  ScalDFC         ....  0.810000
   Scaling of DF-LDA-C  ScalLDAC        ....  1.000000
   Perturbative correction              ....  0.000000
   Density functional embedding theory  .... OFF
   NL short-range parameter             ....  4.800000


General Settings:
 Integral files         IntName         .... project_8051/ensemble_120_225
 Hartree-Fock type      HFTyp           .... RHF
 Total Charge           Charge          ....    0
 Multiplicity           Mult            ....    1
 Number of Electrons    NEL             ....  102
 Basis Dimension        Dim             ....  149
 Nuclear Repulsion      ENuc            ....    937.5752514399 Eh

Convergence Acceleration:
 DIIS                   CNVDIIS         .... on
   Start iteration      DIISMaxIt       ....    12
   Startup error        DIISStart       ....  0.200000
   # of expansion vecs  DIISMaxEq       ....     5
   Bias factor          DIISBfac        ....   1.050
   Max. coefficient     DIISMaxC        ....  10.000
 Newton-Raphson         CNVNR           .... off
 SOSCF                  CNVSOSCF        .... on
   Start iteration      SOSCFMaxIt      ....   150
   Startup grad/error   SOSCFStart      ....  0.003300
 Level Shifting         CNVShift        .... on
   Level shift para.    LevelShift      ....    0.2500
   Turn off err/grad.   ShiftErr        ....    0.0010
 Zerner damping         CNVZerner       .... off
 Static damping         CNVDamp         .... on
   Fraction old density DampFac         ....    0.7000
   Max. Damping (<1)    DampMax         ....    0.9800
   Min. Damping (>=0)   DampMin         ....    0.0000
   Turn off err/grad.   DampErr         ....    0.1000
 Fernandez-Rico         CNVRico         .... off

SCF Procedure:
 Maximum # iterations   MaxIter         ....   125
 SCF integral mode      SCFMode         .... Direct
   Integral package                     .... LIBINT
 Reset frequency        DirectResetFreq ....    20
 Integral Threshold     Thresh          ....  2.500e-11 Eh
 Primitive CutOff       TCut            ....  2.500e-12 Eh

Convergence Tolerance:
 Convergence Check Mode ConvCheckMode   .... Total+1el-Energy
 Convergence forced     ConvForced      .... 0
 Energy Change          TolE            ....  1.000e-08 Eh
 1-El. energy change                    ....  1.000e-05 Eh
 Orbital Gradient       TolG            ....  1.000e-05
 Orbital Rotation angle TolX            ....  1.000e-05
 DIIS Error             TolErr          ....  5.000e-07


Diagonalization of the overlap matrix:
Smallest eigenvalue                        ... 3.315e-03
Time for diagonalization                   ...    0.008 sec
Threshold for overlap eigenvalues          ... 1.000e-08
Number of eigenvalues below threshold      ... 0
Time for construction of square roots      ...    0.102 sec
Total time needed                          ...    0.109 sec

-------------------
DFT GRID GENERATION
-------------------

General Integration Accuracy     IntAcc      ...  4.340
Radial Grid Type                 RadialGrid  ... Gauss-Chebyshev
Angular Grid (max. acc.)         AngularGrid ... Lebedev-110
Angular grid pruning method      GridPruning ... 3 (G Style)
Weight generation scheme         WeightScheme... Becke
Basis function cutoff            BFCut       ...    1.0000e-11
Integration weight cutoff        WCut        ...    1.0000e-14
Grids for H and He will be reduced by one unit

# of grid points (after initial pruning)     ...  34472 (   0.0 sec)
# of grid points (after weights+screening)   ...  30569 (   0.3 sec)
nearest neighbour list constructed           ...    0.0 sec
Grid point re-assignment to atoms done       ...    0.0 sec
Grid point division into batches done        ...    0.0 sec
Reduced shell lists constructed in    0.7 sec

Total number of grid points                  ...    30569
Total number of batches                      ...      491
Average number of points per batch           ...       62
Average number of grid points per atom       ...     1054
Average number of shells per batch           ...    66.26 (68.31%)
Average number of basis functions per batch  ...   107.22 (71.96%)
Average number of large shells per batch     ...    48.87 (73.75%)
Average number of large basis fcns per batch ...    80.58 (75.16%)
Maximum spatial batch extension              ...  22.44, 20.09, 19.49 au
Average spatial batch extension              ...   3.27,  3.23,  3.25 au

Time for grid setup =    8.473 sec

------------------------------
INITIAL GUESS: MODEL POTENTIAL
------------------------------
Loading Hartree-Fock densities                     ... done
Calculating cut-offs                               ... done
Setting up the integral package                    ... done
Initializing the effective Hamiltonian             ... done
Starting the Coulomb interaction                   ... done (   0.4 sec)
Reading the grid                                   ... done
Mapping shells                                     ... done
Starting the XC term evaluation                    ... done (   0.4 sec)
  promolecular density results
     # of electrons  =    101.999864234
     EX              =    -83.778094595
     EC              =     -3.488722056
     EX+EC           =    -87.266816652
Transforming the Hamiltonian                       ... done (   9.2 sec)
Diagonalizing the Hamiltonian                      ... done (   0.0 sec)
Back transforming the eigenvectors                 ... done (   0.0 sec)
Now organizing SCF variables                       ... done
                      ------------------
                      INITIAL GUESS DONE (  22.9 sec)
                      ------------------
--------------
SCF ITERATIONS
--------------
ITER       Energy         Delta-E        Max-DP      RMS-DP      [F,P]     Damp
               ***  Starting incremental Fock matrix formation  ***
  0   -652.4666859533   0.000000000000 0.07636822  0.00312330  0.2363526 0.7000
  1   -652.5934046900  -0.126718736732 0.04251228  0.00214767  0.0931570 0.7000
                               ***Turning on DIIS***
  2   -652.6420469036  -0.048642213606 0.06262411  0.00349322  0.0307635 0.0000
  3   -652.7237063142  -0.081659410557 0.03093925  0.00140538  0.0491967 0.0000
  4   -652.7385639019  -0.014857587756 0.00762404  0.00040836  0.0095662 0.0000
  5   -652.7394590372  -0.000895135291 0.00323481  0.00014521  0.0033698 0.0000
                      *** Initiating the SOSCF procedure ***
                           *** Shutting down DIIS ***
                      *** Re-Reading the Fockian *** 
                      *** Removing any level shift *** 
ITER      Energy       Delta-E        Grad      Rot      Max-DP    RMS-DP
  6   -652.73951798  -0.0000589464  0.000124  0.000124  0.000845  0.000050
               *** Restarting incremental Fock matrix formation ***
  7   -652.73952016  -0.0000021798  0.000089  0.000172  0.000891  0.000026
  8   -652.73951892   0.0000012460  0.000165  0.000155  0.000477  0.000016
  9   -652.73952110  -0.0000021831  0.000020  0.000042  0.000182  0.000006
 10   -652.73952104   0.0000000643  0.000031  0.000027  0.000123  0.000004
 11   -652.73952115  -0.0000001109  0.000004  0.000005  0.000027  0.000001
 12   -652.73952115   0.0000000017  0.000006  0.000003  0.000017  0.000001
                  ***Gradient check signals convergence***
              ***Rediagonalizing the Fockian in SOSCF/NRSCF***

               *****************************************************
               *                     SUCCESS                       *
               *           SCF CONVERGED AFTER  13 CYCLES          *
               *****************************************************

Setting up the final grid:

General Integration Accuracy     IntAcc      ...  4.670
Radial Grid Type                 RadialGrid  ... Gauss-Chebyshev
Angular Grid (max. acc.)         AngularGrid ... Lebedev-302
Angular grid pruning method      GridPruning ... 3 (G Style)
Weight generation scheme         WeightScheme... Becke
Basis function cutoff            BFCut       ...    1.0000e-11
Integration weight cutoff        WCut        ...    1.0000e-14
Grids for H and He will be reduced by one unit

# of grid points (after initial pruning)     ... 135060 (   0.0 sec)
# of grid points (after weights+screening)   ... 117182 (   1.0 sec)
nearest neighbour list constructed           ...    0.0 sec
Grid point re-assignment to atoms done       ...    0.0 sec
Grid point division into batches done        ...    0.4 sec
Reduced shell lists constructed in    1.4 sec

Total number of grid points                  ...   117182
Total number of batches                      ...     1846
Average number of points per batch           ...       63
Average number of grid points per atom       ...     4041
Average number of shells per batch           ...    60.91 (62.80%)
Average number of basis functions per batch  ...    98.77 (66.29%)
Average number of large shells per batch     ...    43.91 (72.09%)
Average number of large basis fcns per batch ...    72.57 (73.48%)
Maximum spatial batch extension              ...  20.70, 20.04, 20.60 au
Average spatial batch extension              ...   2.12,  2.17,  2.17 au

Final grid set up in    5.7 sec
Final integration                            ... done (  20.9 sec)
Change in XC energy                          ...     0.000598303
Integrated number of electrons               ...   101.999944548
Previous integrated no of electrons          ...   102.005839936

----------------
TOTAL SCF ENERGY
----------------

Total Energy       :         -652.73892285 Eh          -17761.92909 eV

Components:
Nuclear Repulsion  :          937.57525144 Eh           25512.71963 eV
Electronic Energy  :        -1590.31417428 Eh          -43274.64872 eV
One Electron Energy:        -2751.91952654 Eh          -74883.53732 eV
Two Electron Energy:         1161.60535226 Eh           31608.88860 eV

Virial components:
Potential Energy   :        -1302.20196180 Eh          -35434.71685 eV
Kinetic Energy     :          649.46303896 Eh           17672.78776 eV
Virial Ratio       :            2.00504399


DFT components:
N(Alpha)           :       50.999972274014 electrons
N(Beta)            :       50.999972274014 electrons
N(Total)           :      101.999944548027 electrons
E(X)               :      -67.672297533627 Eh       
E(C)               :       -4.093235000402 Eh       
E(XC)              :      -71.765532534029 Eh       
DFET-embed. en.    :        0.000000000000 Eh       

---------------
SCF CONVERGENCE
---------------

  Last Energy change         ...   -2.6209e-09  Tolerance :   1.0000e-08
  Last MAX-Density change    ...    3.5286e-06  Tolerance :   1.0000e-07
  Last RMS-Density change    ...    1.2871e-07  Tolerance :   5.0000e-09
  Last Orbital Gradient      ...    3.8217e-07  Tolerance :   1.0000e-05
  Last Orbital Rotation      ...    7.0426e-07  Tolerance :   1.0000e-05

             **** THE GBW FILE WAS UPDATED (project_8051/ensemble_120_225.gbw) ****
             **** DENSITY FILE WAS UPDATED (project_8051/ensemble_120_225.scfp) ****
             **** ENERGY FILE WAS UPDATED (project_8051/ensemble_120_225.en.tmp) ****
             **** THE GBW FILE WAS UPDATED (project_8051/ensemble_120_225.gbw) ****
             **** DENSITY FILE WAS UPDATED (project_8051/ensemble_120_225.scfp) ****
----------------
ORBITAL ENERGIES
----------------

  NO   OCC          E(Eh)            E(eV) 
   0   2.0000     -19.161020      -521.3978 
   1   2.0000     -19.152244      -521.1590 
   2   2.0000     -19.150671      -521.1162 
   3   2.0000     -19.125896      -520.4421 
   4   2.0000     -10.295559      -280.1564 
   5   2.0000     -10.241519      -278.6859 
   6   2.0000     -10.239215      -278.6232 
   7   2.0000     -10.237523      -278.5772 
   8   2.0000     -10.236221      -278.5417 
   9   2.0000     -10.232219      -278.4328 
  10   2.0000     -10.207728      -277.7664 
  11   2.0000     -10.203413      -277.6490 
  12   2.0000     -10.193902      -277.3902 
  13   2.0000      -1.054045       -28.6820 
  14   2.0000      -1.033691       -28.1282 
  15   2.0000      -0.976575       -26.5740 
  16   2.0000      -0.960332       -26.1320 
  17   2.0000      -0.814798       -22.1718 
  18   2.0000      -0.788532       -21.4571 
  19   2.0000      -0.767863       -20.8946 
  20   2.0000      -0.750871       -20.4323 
  21   2.0000      -0.682909       -18.5829 
  22   2.0000      -0.636897       -17.3308 
  23   2.0000      -0.607320       -16.5260 
  24   2.0000      -0.603407       -16.4195 
  25   2.0000      -0.570253       -15.5174 
  26   2.0000      -0.549755       -14.9596 
  27   2.0000      -0.522799       -14.2261 
  28   2.0000      -0.508635       -13.8406 
  29   2.0000      -0.495927       -13.4949 
  30   2.0000      -0.483698       -13.1621 
  31   2.0000      -0.458346       -12.4722 
  32   2.0000      -0.449030       -12.2187 
  33   2.0000      -0.437179       -11.8962 
  34   2.0000      -0.418956       -11.4004 
  35   2.0000      -0.413815       -11.2605 
  36   2.0000      -0.404017       -10.9939 
  37   2.0000      -0.396151       -10.7798 
  38   2.0000      -0.389680       -10.6037 
  39   2.0000      -0.385539       -10.4911 
  40   2.0000      -0.370111       -10.0712 
  41   2.0000      -0.364419        -9.9163 
  42   2.0000      -0.342469        -9.3190 
  43   2.0000      -0.337943        -9.1959 
  44   2.0000      -0.323615        -8.8060 
  45   2.0000      -0.311647        -8.4804 
  46   2.0000      -0.296845        -8.0776 
  47   2.0000      -0.284535        -7.7426 
  48   2.0000      -0.264303        -7.1921 
  49   2.0000      -0.257339        -7.0026 
  50   2.0000      -0.232002        -6.3131 
  51   0.0000       0.038225         1.0402 
  52   0.0000       0.064324         1.7504 
  53   0.0000       0.073765         2.0072 
  54   0.0000       0.084573         2.3014 
  55   0.0000       0.089123         2.4252 
  56   0.0000       0.102600         2.7919 
  57   0.0000       0.120629         3.2825 
  58   0.0000       0.127663         3.4739 
  59   0.0000       0.128355         3.4927 
  60   0.0000       0.134785         3.6677 
  61   0.0000       0.143461         3.9038 
  62   0.0000       0.150588         4.0977 
  63   0.0000       0.155207         4.2234 
  64   0.0000       0.160033         4.3547 
  65   0.0000       0.166303         4.5253 
  66   0.0000       0.175950         4.7878 
  67   0.0000       0.185447         5.0463 
  68   0.0000       0.188468         5.1285 
  69   0.0000       0.192841         5.2475 
  70   0.0000       0.202498         5.5102 
  71   0.0000       0.209544         5.7020 
  72   0.0000       0.216496         5.8912 
  73   0.0000       0.241405         6.5690 
  74   0.0000       0.246123         6.6973 
  75   0.0000       0.262995         7.1564 
  76   0.0000       0.265928         7.2363 
  77   0.0000       0.277250         7.5443 
  78   0.0000       0.289625         7.8811 
  79   0.0000       0.290227         7.8975 
  80   0.0000       0.332421         9.0456 
  81   0.0000       0.515424        14.0254 
  82   0.0000       0.523781        14.2528 
  83   0.0000       0.540210        14.6999 
  84   0.0000       0.547604        14.9011 
  85   0.0000       0.551769        15.0144 
  86   0.0000       0.568627        15.4731 
  87   0.0000       0.576515        15.6878 
  88   0.0000       0.582168        15.8416 
  89   0.0000       0.604589        16.4517 
  90   0.0000       0.613987        16.7074 
  91   0.0000       0.628881        17.1127 
  92   0.0000       0.635838        17.3020 
  93   0.0000       0.639800        17.4099 
  94   0.0000       0.654746        17.8166 
  95   0.0000       0.656440        17.8626 
  96   0.0000       0.674041        18.3416 
  97   0.0000       0.695422        18.9234 
  98   0.0000       0.713103        19.4045 
  99   0.0000       0.716690        19.5021 
 100   0.0000       0.752152        20.4671 
 101   0.0000       0.760080        20.6828 
 102   0.0000       0.800926        21.7943 
 103   0.0000       0.808117        21.9900 
 104   0.0000       0.819381        22.2965 
 105   0.0000       0.849288        23.1103 
 106   0.0000       0.853780        23.2325 
 107   0.0000       0.863930        23.5087 
 108   0.0000       0.867987        23.6191 
 109   0.0000       0.874589        23.7988 
 110   0.0000       0.890863        24.2416 
 111   0.0000       0.901050        24.5188 
 112   0.0000       0.912216        24.8227 
 113   0.0000       0.915998        24.9256 
 114   0.0000       0.931113        25.3369 
 115   0.0000       0.945207        25.7204 
 116   0.0000       0.958748        26.0888 
 117   0.0000       0.967184        26.3184 
 118   0.0000       0.969816        26.3900 
 119   0.0000       0.991799        26.9882 
 120   0.0000       1.001763        27.2593 
 121   0.0000       1.011602        27.5271 
 122   0.0000       1.041978        28.3537 
 123   0.0000       1.065168        28.9847 
 124   0.0000       1.092302        29.7231 
 125   0.0000       1.122764        30.5520 
 126   0.0000       1.163610        31.6635 
 127   0.0000       1.178938        32.0805 
 128   0.0000       1.217720        33.1358 
 129   0.0000       1.223080        33.2817 
 130   0.0000       1.253827        34.1184 
 131   0.0000       1.292501        35.1707 
 132   0.0000       1.340091        36.4657 
 133   0.0000       1.351990        36.7895 
 134   0.0000       1.365893        37.1678 
 135   0.0000       1.438415        39.1413 
 136   0.0000       1.452557        39.5261 
 137   0.0000       1.468368        39.9563 
 138   0.0000       1.493206        40.6322 
 139   0.0000       1.554904        42.3111 
 140   0.0000       1.577064        42.9141 
 141   0.0000       1.630876        44.3784 
 142   0.0000       1.739567        47.3360 
 143   0.0000       1.776759        48.3481 
 144   0.0000       1.850820        50.3634 
 145   0.0000       1.897743        51.6402 
 146   0.0000       2.007722        54.6329 
 147   0.0000       2.150686        58.5231 
 148   0.0000       2.222482        60.4768 

                    ********************************
                    * MULLIKEN POPULATION ANALYSIS *
                    ********************************

-----------------------
MULLIKEN ATOMIC CHARGES
-----------------------
   0 C :    0.242064
   1 C :   -0.265738
   2 C :   -0.342464
   3 C :   -0.141610
   4 O :   -0.467799
   5 H :    0.172900
   6 H :    0.161136
   7 H :    0.167710
   8 H :    0.160168
   9 H :    0.063260
  10 H :    0.236456
  11 H :    0.153340
  12 C :   -0.053778
  13 H :    0.120959
  14 H :    0.158670
  15 O :   -0.478474
  16 C :    0.080149
  17 C :    0.071562
  18 C :   -0.338891
  19 C :   -0.003995
  20 O :   -0.514828
  21 H :    0.173825
  22 H :    0.161785
  23 O :   -0.594133
  24 H :    0.157049
  25 H :    0.194616
  26 H :    0.140254
  27 H :    0.152939
  28 H :    0.432868
Sum of atomic charges:    0.0000000

--------------------------------
MULLIKEN REDUCED ORBITAL CHARGES
--------------------------------
  0 C s       :     3.246483  s :     3.246483
      pz      :     0.821276  p :     2.511453
      px      :     0.694060
      py      :     0.996118
  1 C s       :     3.305930  s :     3.305930
      pz      :     0.941244  p :     2.959808
      px      :     1.072517
      py      :     0.946046
  2 C s       :     3.347972  s :     3.347972
      pz      :     0.909740  p :     2.994492
      px      :     1.069213
      py      :     1.015539
  3 C s       :     3.312352  s :     3.312352
      pz      :     0.950814  p :     2.829258
      px      :     1.156142
      py      :     0.722303
  4 O s       :     3.947515  s :     3.947515
      pz      :     1.313208  p :     4.520284
      px      :     1.715659
      py      :     1.491417
  5 H s       :     0.827100  s :     0.827100
  6 H s       :     0.838864  s :     0.838864
  7 H s       :     0.832290  s :     0.832290
  8 H s       :     0.839832  s :     0.839832
  9 H s       :     0.936740  s :     0.936740
 10 H s       :     0.763544  s :     0.763544
 11 H s       :     0.846660  s :     0.846660
 12 C s       :     3.299978  s :     3.299978
      pz      :     1.054466  p :     2.753800
      px      :     0.981721
      py      :     0.717613
 13 H s       :     0.879041  s :     0.879041
 14 H s       :     0.841330  s :     0.841330
 15 O s       :     3.959007  s :     3.959007
      pz      :     1.814380  p :     4.519467
      px      :     1.301104
      py      :     1.403983
 16 C s       :     3.262690  s :     3.262690
      pz      :     0.907918  p :     2.657161
      px      :     1.008866
      py      :     0.740377
 17 C s       :     3.290497  s :     3.290497
      pz      :     0.959270  p :     2.637940
      px      :     0.897296
      py      :     0.781374
 18 C s       :     3.336158  s :     3.336158
      pz      :     1.060699  p :     3.002733
      px      :     1.001645
      py      :     0.940390
 19 C s       :     3.260724  s :     3.260724
      pz      :     0.967344  p :     2.743271
      px      :     0.906674
      py      :     0.869252
 20 O s       :     3.947726  s :     3.947726
      pz      :     1.758144  p :     4.567102
      px      :     1.638220
      py      :     1.170737
 21 H s       :     0.826175  s :     0.826175
 22 H s       :     0.838215  s :     0.838215
 23 O s       :     3.965376  s :     3.965376
      pz      :     1.596825  p :     4.628757
      px      :     1.453107
      py      :     1.578825
 24 H s       :     0.842951  s :     0.842951
 25 H s       :     0.805384  s :     0.805384
 26 H s       :     0.859746  s :     0.859746
 27 H s       :     0.847061  s :     0.847061
 28 H s       :     0.567132  s :     0.567132


                     *******************************
                     * LOEWDIN POPULATION ANALYSIS *
                     *******************************

----------------------
LOEWDIN ATOMIC CHARGES
----------------------
   0 C :    0.174285
   1 C :   -0.232027
   2 C :   -0.259659
   3 C :   -0.086004
   4 O :   -0.298948
   5 H :    0.120839
   6 H :    0.124683
   7 H :    0.123560
   8 H :    0.125654
   9 H :    0.119540
  10 H :    0.145008
  11 H :    0.112309
  12 C :   -0.063454
  13 H :    0.100263
  14 H :    0.114222
  15 O :   -0.341862
  16 C :    0.027825
  17 C :    0.036719
  18 C :   -0.258449
  19 C :   -0.030757
  20 O :   -0.317968
  21 H :    0.123136
  22 H :    0.121343
  23 O :   -0.443744
  24 H :    0.124611
  25 H :    0.128138
  26 H :    0.099208
  27 H :    0.107852
  28 H :    0.303677

-------------------------------
LOEWDIN REDUCED ORBITAL CHARGES
-------------------------------
  0 C s       :     2.979874  s :     2.979874
      pz      :     0.924938  p :     2.845841
      px      :     0.836319
      py      :     1.084584
  1 C s       :     2.977842  s :     2.977842
      pz      :     1.069888  p :     3.254185
      px      :     1.120085
      py      :     1.064213
  2 C s       :     2.980199  s :     2.980199
      pz      :     1.038520  p :     3.279461
      px      :     1.146633
      py      :     1.094308
  3 C s       :     2.994086  s :     2.994086
      pz      :     1.062658  p :     3.091919
      px      :     1.156106
      py      :     0.873155
  4 O s       :     3.611670  s :     3.611670
      pz      :     1.379865  p :     4.687277
      px      :     1.752229
      py      :     1.555183
  5 H s       :     0.879161  s :     0.879161
  6 H s       :     0.875317  s :     0.875317
  7 H s       :     0.876440  s :     0.876440
  8 H s       :     0.874346  s :     0.874346
  9 H s       :     0.880460  s :     0.880460
 10 H s       :     0.854992  s :     0.854992
 11 H s       :     0.887691  s :     0.887691
 12 C s       :     3.007808  s :     3.007808
      pz      :     1.118240  p :     3.055646
      px      :     1.077260
      py      :     0.860146
 13 H s       :     0.899737  s :     0.899737
 14 H s       :     0.885778  s :     0.885778
 15 O s       :     3.664967  s :     3.664967
      pz      :     1.848718  p :     4.676895
      px      :     1.369061
      py      :     1.459116
 16 C s       :     2.963676  s :     2.963676
      pz      :     1.046617  p :     3.008500
      px      :     1.080955
      py      :     0.880927
 17 C s       :     2.971059  s :     2.971059
      pz      :     1.077885  p :     2.992223
      px      :     0.998422
      py      :     0.915915
 18 C s       :     2.984334  s :     2.984334
      pz      :     1.111488  p :     3.274115
      px      :     1.098444
      py      :     1.064183
 19 C s       :     2.981521  s :     2.981521
      pz      :     1.050613  p :     3.049236
      px      :     1.010380
      py      :     0.988244
 20 O s       :     3.602844  s :     3.602844
      pz      :     1.785359  p :     4.715125
      px      :     1.683364
      py      :     1.246402
 21 H s       :     0.876864  s :     0.876864
 22 H s       :     0.878657  s :     0.878657
 23 O s       :     3.679052  s :     3.679052
      pz      :     1.648974  p :     4.764692
      px      :     1.491903
      py      :     1.623816
 24 H s       :     0.875389  s :     0.875389
 25 H s       :     0.871862  s :     0.871862
 26 H s       :     0.900792  s :     0.900792
 27 H s       :     0.892148  s :     0.892148
 28 H s       :     0.696323  s :     0.696323


                      *****************************
                      * MAYER POPULATION ANALYSIS *
                      *****************************

  NA   - Mulliken gross atomic population
  ZA   - Total nuclear charge
  QA   - Mulliken gross atomic charge
  VA   - Mayer's total valence
  BVA  - Mayer's bonded valence
  FA   - Mayer's free valence

  ATOM       NA         ZA         QA         VA         BVA        FA
  0 C      5.7579     6.0000     0.2421     3.6676     3.6676     0.0000
  1 C      6.2657     6.0000    -0.2657     3.6939     3.6939     0.0000
  2 C      6.3425     6.0000    -0.3425     3.6707     3.6707    -0.0000
  3 C      6.1416     6.0000    -0.1416     3.5679     3.5679     0.0000
  4 O      8.4678     8.0000    -0.4678     1.8104     1.8104    -0.0000
  5 H      0.8271     1.0000     0.1729     0.9290     0.9290     0.0000
  6 H      0.8389     1.0000     0.1611     0.9326     0.9326     0.0000
  7 H      0.8323     1.0000     0.1677     0.9270     0.9270     0.0000
  8 H      0.8398     1.0000     0.1602     0.9406     0.9406    -0.0000
  9 H      0.9367     1.0000     0.0633     0.9766     0.9766    -0.0000
 10 H      0.7635     1.0000     0.2365     0.9162     0.9162     0.0000
 11 H      0.8467     1.0000     0.1533     0.9396     0.9396    -0.0000
 12 C      6.0538     6.0000    -0.0538     3.6436     3.6436    -0.0000
 13 H      0.8790     1.0000     0.1210     0.9255     0.9255    -0.0000
 14 H      0.8413     1.0000     0.1587     0.9288     0.9288    -0.0000
 15 O      8.4785     8.0000    -0.4785     1.8225     1.8225     0.0000
 16 C      5.9199     6.0000     0.0801     3.5591     3.5591     0.0000
 17 C      5.9284     6.0000     0.0716     3.6804     3.6804    -0.0000
 18 C      6.3389     6.0000    -0.3389     3.6836     3.6836     0.0000
 19 C      6.0040     6.0000    -0.0040     3.6452     3.6452    -0.0000
 20 O      8.5148     8.0000    -0.5148     1.7726     1.7726     0.0000
 21 H      0.8262     1.0000     0.1738     0.9283     0.9283    -0.0000
 22 H      0.8382     1.0000     0.1618     0.9310     0.9310    -0.0000
 23 O      8.5941     8.0000    -0.5941     1.7743     1.7743     0.0000
 24 H      0.8430     1.0000     0.1570     0.9390     0.9390    -0.0000
 25 H      0.8054     1.0000     0.1946     0.8968     0.8968    -0.0000
 26 H      0.8597     1.0000     0.1403     0.9259     0.9259    -0.0000
 27 H      0.8471     1.0000     0.1529     0.9260     0.9260     0.0000
 28 H      0.5671     1.0000     0.4329     0.7438     0.7438     0.0000

  Mayer bond orders larger than 0.100000
B(  0-C ,  1-C ) :   0.9196 B(  0-C ,  4-O ) :   0.9112 B(  0-C ,  5-H ) :   0.9278 
B(  0-C , 15-O ) :   0.8595 B(  1-C ,  2-C ) :   0.9300 B(  1-C ,  6-H ) :   0.9291 
B(  1-C ,  7-H ) :   0.9143 B(  2-C ,  3-C ) :   0.9291 B(  2-C ,  8-H ) :   0.9459 
B(  2-C ,  9-H ) :   0.8270 B(  3-C ,  4-O ) :   0.8168 B(  3-C , 10-H ) :   0.8624 
B(  3-C , 11-H ) :   0.9333 B( 12-C , 13-H ) :   0.8878 B( 12-C , 14-H ) :   0.9283 
B( 12-C , 15-O ) :   0.8555 B( 12-C , 16-C ) :   0.8894 B( 16-C , 17-C ) :   0.8930 
B( 16-C , 20-O ) :   0.8473 B( 16-C , 21-H ) :   0.9305 B( 17-C , 18-C ) :   0.9036 
B( 17-C , 22-H ) :   0.9365 B( 17-C , 23-O ) :   0.9363 B( 18-C , 19-C ) :   0.9260 
B( 18-C , 24-H ) :   0.9396 B( 18-C , 25-H ) :   0.8590 B( 19-C , 20-O ) :   0.8404 
B( 19-C , 26-H ) :   0.9331 B( 19-C , 27-H ) :   0.9366 B( 23-O , 28-H ) :   0.6492 


-------
TIMINGS
-------

Total SCF time: 0 days 0 hours 7 min 45 sec 

Total time                  ....     465.067 sec
Sum of individual times     ....     407.631 sec  ( 87.7%)

Fock matrix formation       ....     359.128 sec  ( 77.2%)
  XC integration            ....     112.530 sec  ( 31.3% of F)
    Basis function eval.    ....       3.379 sec  (  3.0% of XC)
    Density eval.           ....       4.107 sec  (  3.6% of XC)
    XC-Functional eval.     ....       4.102 sec  (  3.6% of XC)
    XC-Potential eval.      ....       1.534 sec  (  1.4% of XC)
Diagonalization             ....       3.938 sec  (  0.8%)
Density matrix formation    ....       0.013 sec  (  0.0%)
Population analysis         ....       5.954 sec  (  1.3%)
Initial guess               ....      14.431 sec  (  3.1%)
Orbital Transformation      ....       0.000 sec  (  0.0%)
Orbital Orthonormalization  ....       0.000 sec  (  0.0%)
DIIS solution               ....       8.558 sec  (  1.8%)
SOSCF solution              ....       1.447 sec  (  0.3%)
Grid generation             ....      14.163 sec  (  3.0%)

-------------------------   --------------------
FINAL SINGLE POINT ENERGY      -652.738922845086
-------------------------   --------------------

------------------------------------------------------------------------------
                         ORCA SCF GRADIENT CALCULATION
------------------------------------------------------------------------------

Gradient of the Kohn-Sham DFT energy:
Kohn-Sham wavefunction type      ... RKS
Hartree-Fock exchange scaling    ...    0.200
Number of operators              ...    1
Number of atoms                  ...   29
Basis set dimensions             ...  149
Integral neglect threshold       ... 2.5e-11
Integral primitive cutoff        ... 2.5e-12

Nuclear repulsion gradient       ... done
One Electron Gradient            ... done
Pre-screening matrix             ... done
Starting the two electron gradient:
Two electron gradient done
Exchange-correlation gradient    ... done

------------------
CARTESIAN GRADIENT
------------------

   1   C   :    0.010878434   -0.006279942   -0.001590991
   2   C   :   -0.007301893    0.000887139    0.000658536
   3   C   :   -0.020791006    0.006689062    0.008956335
   4   C   :   -0.033072877   -0.001877987   -0.011012999
   5   O   :    0.011556505   -0.001762969    0.018369969
   6   H   :    0.008536689    0.001413838   -0.003996961
   7   H   :    0.000823237    0.002073873   -0.000176544
   8   H   :   -0.009315785    0.003732061    0.001685111
   9   H   :   -0.000594832    0.000473980   -0.000505469
  10   H   :   -0.032363320    0.020274590    0.010100886
  11   H   :   -0.015059174    0.003025227   -0.002738263
  12   H   :   -0.000889247    0.000233697    0.003045611
  13   C   :    0.002638356    0.008458700   -0.002241583
  14   H   :    0.015424926    0.003857812    0.002893189
  15   H   :   -0.003485538    0.006634647   -0.000776960
  16   O   :   -0.017226124   -0.026024096    0.018918506
  17   C   :   -0.004466902    0.021471663    0.002045683
  18   C   :   -0.026748408    0.024624397   -0.002756876
  19   C   :    0.013544668   -0.015257243   -0.005310413
  20   C   :   -0.003751514   -0.002530008   -0.004170204
  21   O   :   -0.004338811    0.006086340    0.004415892
  22   H   :    0.000303538   -0.001401430   -0.003076493
  23   H   :   -0.006167518    0.006857992   -0.002808756
  24   O   :    0.003592959   -0.036386803    0.034723867
  25   H   :    0.000482517    0.001190850    0.000008356
  26   H   :    0.022671986   -0.024854299   -0.012709009
  27   H   :    0.000453473   -0.000788454    0.000324363
  28   H   :    0.000402880   -0.000160512    0.000282208
  29   H   :    0.094262780   -0.000662124   -0.052556989

Difference to translation invariance:
           :    0.0000000000    0.0000000000    0.0000000001

Norm of the cartesian gradient     ...    0.1554868766
RMS gradient                       ...    0.0166699429
MAX gradient                       ...    0.0942627798

-------
TIMINGS
-------

Total SCF gradient time            ...       95.218 sec

One electron gradient       ....       0.315 sec  (  0.3%)
Prescreening matrices       ....       0.050 sec  (  0.1%)
Two electron gradient       ....      19.115 sec  ( 20.1%)
XC gradient                 ....      60.822 sec  ( 63.9%)
------------------------------------------------------------------------------
                         ORCA GEOMETRY RELAXATION STEP
------------------------------------------------------------------------------

Reading the OPT-File                    .... done
Getting information on internals        .... done
Copying old internal coords+grads       .... done
Making the new internal coordinates     .... (new redundants).... done
Validating the new internal coordinates .... (new redundants).... done
Calculating the B-matrix                .... done
Calculating the G,G- and P matrices     .... done
Transforming gradient to internals      .... done
Projecting the internal gradient        .... done
Number of atoms                         ....  29
Number of internal coordinates          .... 172
Current Energy                          ....  -652.738922845 Eh
Current gradient norm                   ....     0.155486877 Eh/bohr
Maximum allowed component of the step   ....  0.300
Current trust radius                    ....  0.300
Evaluating the initial hessian          ....  (Almloef) done
Projecting the Hessian                  .... done
Forming the augmented Hessian           .... done
Diagonalizing the augmented Hessian     .... done
Last element of RFO vector              ....  0.775462467
Lowest eigenvalues of augmented Hessian:
 -0.442214210  0.008166836  0.032929377  0.033176908  0.036734401
Length of the computed step             ....  0.814215638
Warning: the length of the step is outside the trust region - taking restricted step instead
The input lambda is                     ....    -0.442214
   iter:   1  x=   -0.721766  g=    2.049520 f(x)=     0.572947
   iter:   2  x=   -1.063833  g=    0.690012 f(x)=     0.236031
   iter:   3  x=   -1.381504  g=    0.271664 f(x)=     0.086300
   iter:   4  x=   -1.551503  g=    0.140488 f(x)=     0.023883
   iter:   5  x=   -1.583256  g=    0.104054 f(x)=     0.003304
   iter:   6  x=   -1.584127  g=    0.098698 f(x)=     0.000086
   iter:   7  x=   -1.584128  g=    0.098557 f(x)=     0.000000
   iter:   8  x=   -1.584128  g=    0.098557 f(x)=     0.000000
   iter:   9  x=   -1.584128  g=    0.098557 f(x)=    -0.000000
The output lambda is                    ....    -1.584128 (9 iterations)
The final length of the internal step   ....  0.300000000
Converting the step to cartesian space:
 Initial RMS(Int)=    0.0228747855
Transforming coordinates:
 Iter   0:  RMS(Cart)=    0.3307929407 RMS(Int)=    0.4788276749
 Iter   1:  RMS(Cart)=    0.0129606309 RMS(Int)=    0.0062588959
 Iter   2:  RMS(Cart)=    0.0029549264 RMS(Int)=    0.0003877300
 Iter   3:  RMS(Cart)=    0.0002633513 RMS(Int)=    0.0001278033
 Iter   4:  RMS(Cart)=    0.0000493282 RMS(Int)=    0.0000081679
 Iter   5:  RMS(Cart)=    0.0000055509 RMS(Int)=    0.0000025530
 Iter   6:  RMS(Cart)=    0.0000010626 RMS(Int)=    0.0000001935
 Iter   7:  RMS(Cart)=    0.0000001114 RMS(Int)=    0.0000000568
 Iter   8:  RMS(Cart)=    0.0000000192 RMS(Int)=    0.0000000043
Imposing constraints:
 Iter   0:  RMS(Cart)=    0.0002684782 RMS(Int)=    0.0001473379
 Iter   1:  RMS(Cart)=    0.0001251492 RMS(Int)=    0.0000964655
 Iter   2:  RMS(Cart)=    0.0000607565 RMS(Int)=    0.0000740328
 Iter   3:  RMS(Cart)=    0.0000333426 RMS(Int)=    0.0000639676
 Iter   4:  RMS(Cart)=    0.0000222050 RMS(Int)=    0.0000589089
 Iter   5:  RMS(Cart)=    0.0000172031 RMS(Int)=    0.0000558721
[...]
  29   2.0000      -0.498904       -13.5759 
  30   2.0000      -0.472295       -12.8518 
  31   2.0000      -0.455805       -12.4031 
  32   2.0000      -0.445881       -12.1330 
  33   2.0000      -0.440443       -11.9851 
  34   2.0000      -0.432886       -11.7794 
  35   2.0000      -0.417474       -11.3601 
  36   2.0000      -0.412339       -11.2203 
  37   2.0000      -0.390310       -10.6209 
  38   2.0000      -0.385837       -10.4992 
  39   2.0000      -0.373949       -10.1757 
  40   2.0000      -0.366024        -9.9600 
  41   2.0000      -0.361705        -9.8425 
  42   2.0000      -0.347740        -9.4625 
  43   2.0000      -0.339893        -9.2490 
  44   2.0000      -0.323916        -8.8142 
  45   2.0000      -0.302738        -8.2379 
  46   2.0000      -0.294867        -8.0237 
  47   2.0000      -0.279221        -7.5980 
  48   2.0000      -0.265251        -7.2179 
  49   2.0000      -0.254139        -6.9155 
  50   2.0000      -0.244979        -6.6662 
  51   0.0000       0.058502         1.5919 
  52   0.0000       0.066733         1.8159 
  53   0.0000       0.087969         2.3938 
  54   0.0000       0.092205         2.5090 
  55   0.0000       0.106683         2.9030 
  56   0.0000       0.111826         3.0429 
  57   0.0000       0.126323         3.4374 
  58   0.0000       0.131184         3.5697 
  59   0.0000       0.135861         3.6970 
  60   0.0000       0.144581         3.9342 
  61   0.0000       0.151420         4.1203 
  62   0.0000       0.154107         4.1935 
  63   0.0000       0.163982         4.4622 
  64   0.0000       0.167488         4.5576 
  65   0.0000       0.173520         4.7217 
  66   0.0000       0.184007         5.0071 
  67   0.0000       0.192908         5.2493 
  68   0.0000       0.194380         5.2893 
  69   0.0000       0.206377         5.6158 
  70   0.0000       0.206955         5.6315 
  71   0.0000       0.219948         5.9851 
  72   0.0000       0.233740         6.3604 
  73   0.0000       0.241026         6.5587 
  74   0.0000       0.256471         6.9789 
  75   0.0000       0.268528         7.3070 
  76   0.0000       0.274710         7.4753 
  77   0.0000       0.280298         7.6273 
  78   0.0000       0.301235         8.1970 
  79   0.0000       0.313506         8.5309 
  80   0.0000       0.347813         9.4645 
  81   0.0000       0.492323        13.3968 
  82   0.0000       0.520695        14.1688 
  83   0.0000       0.540352        14.7037 
  84   0.0000       0.554277        15.0826 
  85   0.0000       0.555586        15.1183 
  86   0.0000       0.567368        15.4389 
  87   0.0000       0.581001        15.8098 
  88   0.0000       0.585708        15.9379 
  89   0.0000       0.594366        16.1735 
  90   0.0000       0.606707        16.5093 
  91   0.0000       0.613365        16.6905 
  92   0.0000       0.621159        16.9026 
  93   0.0000       0.628090        17.0912 
  94   0.0000       0.638448        17.3731 
  95   0.0000       0.654583        17.8121 
  96   0.0000       0.668979        18.2038 
  97   0.0000       0.672422        18.2975 
  98   0.0000       0.681268        18.5383 
  99   0.0000       0.700583        19.0638 
 100   0.0000       0.716366        19.4933 
 101   0.0000       0.735738        20.0204 
 102   0.0000       0.799902        21.7665 
 103   0.0000       0.811978        22.0951 
 104   0.0000       0.820655        22.3312 
 105   0.0000       0.837400        22.7868 
 106   0.0000       0.848177        23.0801 
 107   0.0000       0.867126        23.5957 
 108   0.0000       0.873768        23.7764 
 109   0.0000       0.878153        23.8958 
 110   0.0000       0.883061        24.0293 
 111   0.0000       0.903220        24.5779 
 112   0.0000       0.908276        24.7155 
 113   0.0000       0.913242        24.8506 
 114   0.0000       0.927053        25.2264 
 115   0.0000       0.940697        25.5977 
 116   0.0000       0.951183        25.8830 
 117   0.0000       0.958414        26.0798 
 118   0.0000       0.966355        26.2959 
 119   0.0000       0.973012        26.4770 
 120   0.0000       0.983034        26.7497 
 121   0.0000       0.991628        26.9836 
 122   0.0000       1.023037        27.8383 
 123   0.0000       1.037551        28.2332 
 124   0.0000       1.054682        28.6994 
 125   0.0000       1.090390        29.6710 
 126   0.0000       1.138637        30.9839 
 127   0.0000       1.142682        31.0940 
 128   0.0000       1.181900        32.1611 
 129   0.0000       1.196676        32.5632 
 130   0.0000       1.215114        33.0649 
 131   0.0000       1.263113        34.3711 
 132   0.0000       1.271497        34.5992 
 133   0.0000       1.306315        35.5466 
 134   0.0000       1.361197        37.0400 
 135   0.0000       1.383940        37.6589 
 136   0.0000       1.414271        38.4843 
 137   0.0000       1.451880        39.5077 
 138   0.0000       1.477823        40.2136 
 139   0.0000       1.513253        41.1777 
 140   0.0000       1.533006        41.7152 
 141   0.0000       1.596276        43.4369 
 142   0.0000       1.638229        44.5785 
 143   0.0000       1.678484        45.6739 
 144   0.0000       1.761640        47.9367 
 145   0.0000       1.907599        51.9084 
 146   0.0000       2.006778        54.6072 
 147   0.0000       2.020494        54.9804 
 148   0.0000       2.104147        57.2568 

                    ********************************
                    * MULLIKEN POPULATION ANALYSIS *
                    ********************************

-----------------------
MULLIKEN ATOMIC CHARGES
-----------------------
   0 C :    0.318866
   1 C :   -0.303378
   2 C :   -0.319134
   3 C :   -0.030292
   4 O :   -0.507760
   5 H :    0.165629
   6 H :    0.163572
   7 H :    0.150048
   8 H :    0.146211
   9 H :    0.161147
  10 H :    0.191784
  11 H :    0.143222
  12 C :   -0.004980
  13 H :    0.130148
  14 H :    0.161851
  15 O :   -0.561314
  16 C :    0.052190
  17 C :    0.119694
  18 C :   -0.317786
  19 C :   -0.012826
  20 O :   -0.522096
  21 H :    0.165228
  22 H :    0.148208
  23 O :   -0.640795
  24 H :    0.154622
  25 H :    0.154721
  26 H :    0.139560
  27 H :    0.150627
  28 H :    0.403033
Sum of atomic charges:   -0.0000000

--------------------------------
MULLIKEN REDUCED ORBITAL CHARGES
--------------------------------
  0 C s       :     3.175905  s :     3.175905
      pz      :     0.790680  p :     2.505229
      px      :     0.701492
      py      :     1.013057
  1 C s       :     3.320960  s :     3.320960
      pz      :     0.986005  p :     2.982418
      px      :     1.015656
      py      :     0.980757
  2 C s       :     3.327453  s :     3.327453
      pz      :     0.906294  p :     2.991681
      px      :     1.088400
      py      :     0.996987
  3 C s       :     3.277384  s :     3.277384
      pz      :     0.983930  p :     2.752908
      px      :     0.989852
      py      :     0.779127
  4 O s       :     3.941166  s :     3.941166
      pz      :     1.352872  p :     4.566594
      px      :     1.651297
      py      :     1.562426
  5 H s       :     0.834371  s :     0.834371
  6 H s       :     0.836428  s :     0.836428
  7 H s       :     0.849952  s :     0.849952
  8 H s       :     0.853789  s :     0.853789
  9 H s       :     0.838853  s :     0.838853
 10 H s       :     0.808216  s :     0.808216
 11 H s       :     0.856778  s :     0.856778
 12 C s       :     3.263732  s :     3.263732
      pz      :     1.035439  p :     2.741247
      px      :     0.968347
      py      :     0.737461
 13 H s       :     0.869852  s :     0.869852
 14 H s       :     0.838149  s :     0.838149
 15 O s       :     3.912882  s :     3.912882
      pz      :     1.813706  p :     4.648433
      px      :     1.367808
      py      :     1.466919
 16 C s       :     3.261539  s :     3.261539
      pz      :     0.913016  p :     2.686271
      px      :     0.991487
      py      :     0.781767
 17 C s       :     3.234425  s :     3.234425
      pz      :     0.922626  p :     2.645881
      px      :     0.893486
      py      :     0.829770
 18 C s       :     3.328559  s :     3.328559
      pz      :     1.037265  p :     2.989226
      px      :     1.009058
      py      :     0.942903
 19 C s       :     3.266010  s :     3.266010
      pz      :     0.929863  p :     2.746816
      px      :     0.962239
      py      :     0.854714
 20 O s       :     3.946636  s :     3.946636
      pz      :     1.718511  p :     4.575460
      px      :     1.690025
      py      :     1.166924
 21 H s       :     0.834772  s :     0.834772
 22 H s       :     0.851792  s :     0.851792
 23 O s       :     3.919756  s :     3.919756
      pz      :     1.683559  p :     4.721039
      px      :     1.651737
      py      :     1.385742
 24 H s       :     0.845378  s :     0.845378
 25 H s       :     0.845279  s :     0.845279
 26 H s       :     0.860440  s :     0.860440
 27 H s       :     0.849373  s :     0.849373
 28 H s       :     0.596967  s :     0.596967


                     *******************************
                     * LOEWDIN POPULATION ANALYSIS *
                     *******************************

----------------------
LOEWDIN ATOMIC CHARGES
----------------------
   0 C :    0.179538
   1 C :   -0.230780
   2 C :   -0.221383
   3 C :   -0.039419
   4 O :   -0.315197
   5 H :    0.108568
   6 H :    0.126692
   7 H :    0.117049
   8 H :    0.117209
   9 H :    0.108456
  10 H :    0.126217
  11 H :    0.103362
  12 C :   -0.038314
  13 H :    0.096663
  14 H :    0.113444
  15 O :   -0.346799
  16 C :    0.014660
  17 C :    0.041700
  18 C :   -0.234216
  19 C :   -0.030693
  20 O :   -0.321694
  21 H :    0.115628
  22 H :    0.103224
  23 O :   -0.426784
  24 H :    0.122225
  25 H :    0.109564
  26 H :    0.100703
  27 H :    0.106460
  28 H :    0.293920

-------------------------------
LOEWDIN REDUCED ORBITAL CHARGES
-------------------------------
  0 C s       :     2.948172  s :     2.948172
      pz      :     0.917626  p :     2.872290
      px      :     0.870392
      py      :     1.084272
  1 C s       :     2.977563  s :     2.977563
      pz      :     1.079538  p :     3.253218
      px      :     1.094323
      py      :     1.079356
  2 C s       :     2.972517  s :     2.972517
      pz      :     1.032770  p :     3.248866
      px      :     1.128812
      py      :     1.087284
  3 C s       :     2.990746  s :     2.990746
      pz      :     1.074764  p :     3.048672
      px      :     1.061487
      py      :     0.912422
  4 O s       :     3.604936  s :     3.604936
      pz      :     1.416372  p :     4.710261
      px      :     1.690949
      py      :     1.602940
  5 H s       :     0.891432  s :     0.891432
  6 H s       :     0.873308  s :     0.873308
  7 H s       :     0.882951  s :     0.882951
  8 H s       :     0.882791  s :     0.882791
  9 H s       :     0.891544  s :     0.891544
 10 H s       :     0.873783  s :     0.873783
 11 H s       :     0.896638  s :     0.896638
 12 C s       :     2.984512  s :     2.984512
      pz      :     1.110294  p :     3.053802
      px      :     1.061051
      py      :     0.882457
 13 H s       :     0.903337  s :     0.903337
 14 H s       :     0.886556  s :     0.886556
 15 O s       :     3.576739  s :     3.576739
      pz      :     1.830919  p :     4.770060
      px      :     1.419503
      py      :     1.519638
 16 C s       :     2.961776  s :     2.961776
      pz      :     1.053830  p :     3.023565
      px      :     1.063191
      py      :     0.906544
 17 C s       :     2.946798  s :     2.946798
      pz      :     1.048102  p :     3.011503
      px      :     1.003496
      py      :     0.959905
 18 C s       :     2.982430  s :     2.982430
      pz      :     1.101415  p :     3.251786
      px      :     1.096472
      py      :     1.053899
 19 C s       :     2.982647  s :     2.982647
      pz      :     1.022767  p :     3.048046
      px      :     1.055284
      py      :     0.969996
 20 O s       :     3.601455  s :     3.601455
      pz      :     1.749487  p :     4.720239
      px      :     1.727642
      py      :     1.243110
 21 H s       :     0.884372  s :     0.884372
 22 H s       :     0.896776  s :     0.896776
 23 O s       :     3.593448  s :     3.593448
      pz      :     1.711251  p :     4.833336
      px      :     1.689994
      py      :     1.432091
 24 H s       :     0.877775  s :     0.877775
 25 H s       :     0.890436  s :     0.890436
 26 H s       :     0.899297  s :     0.899297
 27 H s       :     0.893540  s :     0.893540
 28 H s       :     0.706080  s :     0.706080


                      *****************************
                      * MAYER POPULATION ANALYSIS *
                      *****************************

  NA   - Mulliken gross atomic population
  ZA   - Total nuclear charge
  QA   - Mulliken gross atomic charge
  VA   - Mayer's total valence
  BVA  - Mayer's bonded valence
  FA   - Mayer's free valence

  ATOM       NA         ZA         QA         VA         BVA        FA
  0 C      5.6811     6.0000     0.3189     3.6674     3.6674     0.0000
  1 C      6.3034     6.0000    -0.3034     3.7241     3.7241     0.0000
  2 C      6.3191     6.0000    -0.3191     3.7476     3.7476     0.0000
  3 C      6.0303     6.0000    -0.0303     3.6267     3.6267    -0.0000
  4 O      8.5078     8.0000    -0.5078     1.7990     1.7990     0.0000
  5 H      0.8344     1.0000     0.1656     0.9255     0.9255     0.0000
  6 H      0.8364     1.0000     0.1636     0.9307     0.9307     0.0000
  7 H      0.8500     1.0000     0.1500     0.9366     0.9366     0.0000
  8 H      0.8538     1.0000     0.1462     0.9376     0.9376    -0.0000
  9 H      0.8389     1.0000     0.1611     0.9351     0.9351    -0.0000
 10 H      0.8082     1.0000     0.1918     0.9353     0.9353     0.0000
 11 H      0.8568     1.0000     0.1432     0.9295     0.9295     0.0000
 12 C      6.0050     6.0000    -0.0050     3.6072     3.6072     0.0000
 13 H      0.8699     1.0000     0.1301     0.9371     0.9371    -0.0000
 14 H      0.8381     1.0000     0.1619     0.9255     0.9255    -0.0000
 15 O      8.5613     8.0000    -0.5613     1.7422     1.7422     0.0000
 16 C      5.9478     6.0000     0.0522     3.6028     3.6028    -0.0000
 17 C      5.8803     6.0000     0.1197     3.6735     3.6735     0.0000
 18 C      6.3178     6.0000    -0.3178     3.7074     3.7074    -0.0000
 19 C      6.0128     6.0000    -0.0128     3.6540     3.6540    -0.0000
 20 O      8.5221     8.0000    -0.5221     1.7652     1.7652     0.0000
 21 H      0.8348     1.0000     0.1652     0.9260     0.9260     0.0000
 22 H      0.8518     1.0000     0.1482     0.9201     0.9201     0.0000
 23 O      8.6408     8.0000    -0.6408     1.7402     1.7402    -0.0000
 24 H      0.8454     1.0000     0.1546     0.9374     0.9374    -0.0000
 25 H      0.8453     1.0000     0.1547     0.9398     0.9398    -0.0000
 26 H      0.8604     1.0000     0.1396     0.9270     0.9270     0.0000
 27 H      0.8494     1.0000     0.1506     0.9270     0.9270    -0.0000
 28 H      0.5970     1.0000     0.4030     0.8304     0.8304    -0.0000

  Mayer bond orders larger than 0.100000
B(  0-C ,  1-C ) :   0.9298 B(  0-C ,  4-O ) :   0.9220 B(  0-C ,  5-H ) :   0.9325 
B(  0-C , 15-O ) :   0.8422 B(  1-C ,  2-C ) :   0.9508 B(  1-C ,  6-H ) :   0.9324 
B(  1-C ,  7-H ) :   0.9314 B(  2-C ,  3-C ) :   0.9532 B(  2-C ,  8-H ) :   0.9452 
B(  2-C ,  9-H ) :   0.9213 B(  3-C ,  4-O ) :   0.8180 B(  3-C , 10-H ) :   0.9101 
B(  3-C , 11-H ) :   0.9383 B( 12-C , 13-H ) :   0.9166 B( 12-C , 14-H ) :   0.9282 
B( 12-C , 15-O ) :   0.8023 B( 12-C , 16-C ) :   0.9027 B( 16-C , 17-C ) :   0.9100 
B( 16-C , 20-O ) :   0.8510 B( 16-C , 21-H ) :   0.9280 B( 17-C , 18-C ) :   0.9168 
B( 17-C , 22-H ) :   0.9221 B( 17-C , 23-O ) :   0.9162 B( 18-C , 19-C ) :   0.9398 
B( 18-C , 24-H ) :   0.9430 B( 18-C , 25-H ) :   0.9279 B( 19-C , 20-O ) :   0.8360 
B( 19-C , 26-H ) :   0.9344 B( 19-C , 27-H ) :   0.9380 B( 23-O , 28-H ) :   0.7198 


-------
TIMINGS
-------

Total SCF time: 0 days 0 hours 3 min 6 sec 

Total time                  ....     186.711 sec
Sum of individual times     ....     135.669 sec  ( 72.7%)

Fock matrix formation       ....     115.604 sec  ( 61.9%)
  XC integration            ....      36.447 sec  ( 31.5% of F)
    Basis function eval.    ....       1.409 sec  (  3.9% of XC)
    Density eval.           ....       1.067 sec  (  2.9% of XC)
    XC-Functional eval.     ....       0.326 sec  (  0.9% of XC)
    XC-Potential eval.      ....       0.648 sec  (  1.8% of XC)
Diagonalization             ....       0.738 sec  (  0.4%)
Density matrix formation    ....       0.004 sec  (  0.0%)
Population analysis         ....       8.905 sec  (  4.8%)
Initial guess               ....       1.910 sec  (  1.0%)
Orbital Transformation      ....       0.000 sec  (  0.0%)
Orbital Orthonormalization  ....       0.005 sec  (  0.0%)
DIIS solution               ....       0.003 sec  (  0.0%)
SOSCF solution              ....       1.316 sec  (  0.7%)
Grid generation             ....       7.189 sec  (  3.9%)

-------------------------   --------------------
FINAL SINGLE POINT ENERGY      -652.856307894106
-------------------------   --------------------

                                *** OPTIMIZATION RUN DONE ***

                            ***************************************
                            *     ORCA property calculations      *
                            ***************************************

                                    ---------------------
                                    Active property flags
                                    ---------------------
   (+) Dipole Moment


------------------------------------------------------------------------------
                       ORCA ELECTRIC PROPERTIES CALCULATION
------------------------------------------------------------------------------

Dipole Moment Calculation                       ... on
Quadrupole Moment Calculation                   ... off
Polarizability Calculation                      ... off
GBWName                                         ... project_8051/ensemble_120_225.gbw
Electron density file                           ... project_8051/ensemble_120_225.scfp
The origin for moment calculation is the CENTER OF MASS  = (-42.077269, 52.894048 89.393632)

-------------
DIPOLE MOMENT
-------------
                                X             Y             Z
Electronic contribution:     -4.12548      -4.95230      -0.04583
Nuclear contribution   :      5.06081       5.95969      -0.54318
                        -----------------------------------------
Total Dipole Moment    :      0.93533       1.00739      -0.58902
                        -----------------------------------------
Magnitude (a.u.)       :      1.49553
Magnitude (Debye)      :      3.80134



--------------------
Rotational spectrum 
--------------------
 
Rotational constants in cm-1:     0.046393     0.018253     0.017130 
Rotational constants in MHz :  1390.824529   547.219373   513.543242 

 Dipole components along the rotational axes: 
x,y,z [a.u.] :    -0.205487     0.061744     1.480058 
x,y,z [Debye]:    -0.522305     0.156941     3.762009 

 

Timings for individual modules:

Sum of individual times         ...     5320.010 sec (=  88.667 min)
GTO integral calculation        ...      155.053 sec (=   2.584 min)   2.9 %
SCF iterations                  ...     4523.821 sec (=  75.397 min)  85.0 %
SCF Gradient evaluation         ...      557.864 sec (=   9.298 min)  10.5 %
Geometry relaxation             ...       83.273 sec (=   1.388 min)   1.6 %
                             ****ORCA TERMINATED NORMALLY****
TOTAL RUN TIME: 0 days 1 hours 34 minutes 3 seconds 757 msec
