
                                 *****************
                                 * O   R   C   A *
                                 *****************

           --- An Ab Initio, DFT and Semiempirical electronic structure package ---

                  #######################################################
                  #                        -***-                        #
                  #          Department of theory and spectroscopy      #
                  #               Directorship: Frank Neese             #
                  #        Max Planck Institute fuer Kohlenforschung    #
                  #                Kaiser Wilhelm Platz 1               #
                  #                 D-45470 Muelheim/Ruhr               #
                  #                      Germany                        #
                  #                                                     #
                  #                  All rights reserved                #
                  #                        -***-                        #
                  #######################################################


                         Program Version 4.2.0 -  RELEASE  -


 With contributions from (in alphabetic order):
   Daniel Aravena         : Magnetic Suceptibility
   Michael Atanasov       : Ab Initio Ligand Field Theory (pilot matlab implementation)
   Alexander A. Auer      : GIAO ZORA, VPT2
   Ute Becker             : Parallelization
   Giovanni Bistoni       : ED, misc. LED, open-shell LED, HFLED
   Martin Brehm           : Molecular dynamics
   Dmytro Bykov           : SCF Hessian
   Vijay G. Chilkuri      : MRCI spin determinant printing, contributions to CSF-ICE
   Dipayan Datta          : RHF DLPNO-CCSD density
   Achintya Kumar Dutta   : EOM-CC, STEOM-CC
   Dmitry Ganyushin       : Spin-Orbit,Spin-Spin,Magnetic field MRCI
   Miquel Garcia          : C-PCM Hessian, Gaussian charge scheme
   Yang Guo               : DLPNO-NEVPT2, CIM, IAO-localization
   Andreas Hansen         : Spin unrestricted coupled pair/coupled cluster methods
   Benjamin Helmich-Paris : CASSCF linear response (MC-RPA)
   Lee Huntington         : MR-EOM, pCC
   Robert Izsak           : Overlap fitted RIJCOSX, COSX-SCS-MP3, EOM
   Christian Kollmar      : KDIIS, OOCD, Brueckner-CCSD(T), CCSD density
   Simone Kossmann        : Meta GGA functionals, TD-DFT gradient, OOMP2, MP2 Hessian
   Martin Krupicka        : AUTO-CI
   Lucas Lang             : DCDCAS
   Dagmar Lenk            : GEPOL surface, SMD
   Dimitrios Liakos       : Extrapolation schemes; Compound Job, initial MDCI parallelization
   Dimitrios Manganas     : Further ROCIS development; embedding schemes
   Dimitrios Pantazis     : SARC Basis sets
   Taras Petrenko         : DFT Hessian,TD-DFT gradient, ASA, ECA, R-Raman, ABS, FL, XAS/XES, NRVS
   Peter Pinski           : DLPNO-MP2, DLPNO-MP2 Gradient
   Christoph Reimann      : Effective Core Potentials
   Marius Retegan         : Local ZFS, SOC
   Christoph Riplinger    : Optimizer, TS searches, QM/MM, DLPNO-CCSD(T), (RO)-DLPNO pert. Triples
   Tobias Risthaus        : Range-separated hybrids, TD-DFT gradient, RPA, STAB
   Michael Roemelt        : Original ROCIS implementation
   Masaaki Saitow         : Open-shell DLPNO-CCSD energy and density
   Barbara Sandhoefer     : DKH picture change effects
   Avijit Sen             : IP-ROCIS
   Kantharuban Sivalingam : CASSCF convergence, NEVPT2, FIC-MRCI
   Bernardo de Souza      : ESD, SOC TD-DFT
   Georgi Stoychev        : AutoAux, RI-MP2 NMR
   Willem Van den Heuvel  : Paramagnetic NMR
   Boris Wezisla          : Elementary symmetry handling
   Frank Wennmohs         : Technical directorship


 We gratefully acknowledge several colleagues who have allowed us to
 interface, adapt or use parts of their codes:
   Stefan Grimme, W. Hujo, H. Kruse,             : VdW corrections, initial TS optimization,
                  C. Bannwarth                     DFT functionals, gCP, sTDA/sTD-DF
   Ed Valeev, F. Pavosevic, A. Kumar             : LibInt (2-el integral package), F12 methods
   Garnet Chan, S. Sharma, J. Yang, R. Olivares  : DMRG
   Ulf Ekstrom                                   : XCFun DFT Library
   Mihaly Kallay                                 : mrcc  (arbitrary order and MRCC methods)
   Andreas Klamt, Michael Diedenhofen            : otool_cosmo (COSMO solvation model)
   Jiri Pittner, Ondrej Demel                    : Mk-CCSD
   Frank Weinhold                                : gennbo (NPA and NBO analysis)
   Christopher J. Cramer and Donald G. Truhlar   : smd solvation model
   Lars Goerigk                                  : TD-DFT with DH, B97 family of functionals
   V. Asgeirsson, H. Jonsson                     : NEB implementation
   FAccTs GmbH                                   : IRC, NEB, NEB-TS, Multilevel, MM, QM/MM, CI optimization
   S Lehtola, MJT Oliveira, MAL Marques          : LibXC Library


 Your calculation uses the libint2 library for the computation of 2-el integrals
 For citations please refer to: http://libint.valeyev.net

 Your ORCA version has been built with support for libXC version: 4.2.3
 For citations please refer to: https://tddft.org/programs/libxc/

 This ORCA versions uses:
   CBLAS   interface :  Fast vector & matrix operations
   LAPACKE interface :  Fast linear algebra routines
   SCALAPACK package :  Parallel linear algebra routines


----- Orbital basis set information -----
Your calculation utilizes the basis: 6-31G
   H-He, Li-Ne : W. J. Hehre, R. Ditchfield and J.A. Pople, J. Chem. Phys. 56, 2257 (1972).
                 Note: He and Ne are unpublished basis sets taken from the Gaussian program.
                 Note: Li and B from J. D. Dill and J. A. Pople, J. Chem. Phys. 62, 2921 (1975).
   Na - Ar     : M. M. Francl, W. J. Pietro, W. J. Hehre, J. S. Binkley, M. S. Gordon, 
                 D. J. DeFrees and J. A. Pople, J. Chem. Phys. 77, 3654 (1982).
   K - Zn      : V. A. Rassolov, J. A. Pople, M. A. Ratner, and T. L. Windus, J. Chem. Phys. 109, 1223 (1998).

================================================================================
                                        WARNINGS
                       Please study these warnings very carefully!
================================================================================


WARNING: Geometry Optimization
  ===> : Switching off AutoStart
         For restart on a previous wavefunction, please use MOREAD

INFO   : the flag for use of LIBINT has been found!

================================================================================
                                       INPUT FILE
================================================================================
NAME = project_8050/ensemble_165_120.inp
|  1> # Test redundant internal optimization
|  2> #
|  3> ! RKS B3LYP  Opt TightSCF SmallPrint
|  4> 
|  5> %basis
|  6>         Basis "6-31G"
|  7> end
|  8> 
|  9> %geom
| 10> Constraints
| 11> { D 4  0  15  12  165.0   C } # D for Dihedral angle
| 12> { D 0  15  12  16  120.0   C } # D for Dihedral angle
| 13> { D 0  4  3  2   C } # D for Dihedral angle
| 14> { D 4  3  2  1   C } # D for Dihedral angle
| 15> { D 3  2  1  0   C } # D for Dihedral angle
| 16> { D 2  1  0  4   C } # D for Dihedral angle
| 17> { D 1  0  4  3   C } # D for Dihedral angle
| 18> { D 16  20  19  18   C } # D for Dihedral angle
| 19> { D 20  19  18  17   C } # D for Dihedral angle
| 20> { D 19  18  17  16   C } # D for Dihedral angle
| 21> { D 18  17  16  20   C } # D for Dihedral angle
| 22> { D 17  16  20  19   C } # D for Dihedral angle
| 23> { D 15  12  16  20   C } # D for Dihedral angle
| 24> end
| 25> end
| 26> 
| 27> 
| 28> #%pal 
| 29> #nprocs 8
| 30> #end
| 31> 
| 32> * xyz 0 1
| 33> C  -21.048   26.222   46.251
| 34> C  -20.361   27.558   45.944
| 35> C  -20.329   28.222   47.341
| 36> C  -20.110   27.022   48.296
| 37> O  -20.473   25.807   47.535
| 38> H  -20.833   25.428   45.533
| 39> H  -19.344   27.382   45.576
| 40> H  -20.898   28.157   45.201
| 41> H  -19.543   28.978   47.434
| 42> H  -21.289   28.710   47.548
| 43> H  -20.733   27.082   49.195
| 44> H  -19.064   26.913   48.597
| 45> C  -23.260   27.170   45.210
| 46> H  -23.749   28.068   45.609
| 47> H  -22.509   27.486   44.475
| 48> O  -22.586   26.394   46.375
| 49> C  -24.327   26.324   44.463
| 50> C  -25.506   25.979   45.380
| 51> C  -26.315   27.299   45.360
| 52> C  -26.109   27.815   43.913
| 53> O  -24.930   27.103   43.376
| 54> H  -23.842   25.459   44.006
| 55> O  -26.336   24.818   44.767
| 56> H  -25.197   25.686   46.388
| 57> H  -27.371   27.153   45.605
| 58> H  -25.897   28.006   46.086
| 59> H  -25.926   28.893   43.875
| 60> H  -26.954   27.577   43.261
| 61> H  -26.659   25.090   43.754
| 62> *
| 63> 
| 64>                          ****END OF INPUT****
================================================================================

                       *****************************
                       * Geometry Optimization Run *
                       *****************************

Geometry optimization settings:
Update method            Update   .... BFGS
Choice of coordinates    CoordSys .... Z-matrix Internals
Initial Hessian          InHess   .... Almoef's Model

Convergence Tolerances:
Energy Change            TolE     ....  5.0000e-06 Eh
Max. Gradient            TolMAXG  ....  3.0000e-04 Eh/bohr
RMS Gradient             TolRMSG  ....  1.0000e-04 Eh/bohr
Max. Displacement        TolMAXD  ....  4.0000e-03 bohr
RMS Displacement         TolRMSD  ....  2.0000e-03 bohr
Strict Convergence                ....  False
------------------------------------------------------------------------------
                        ORCA OPTIMIZATION COORDINATE SETUP
------------------------------------------------------------------------------

The optimization will be done in new redundant internal coordinates
Making redundant internal coordinates   ...  (new redundants) done
Evaluating the initial hessian          ...  (Almloef) done
Evaluating the coordinates              ...  done
Calculating the B-matrix                .... done
Calculating the G-matrix                .... done
Diagonalizing the G-matrix              .... done
Imposing constraints:
 Iter   0:  RMS(Cart)=    0.0000755995 RMS(Int)=    0.0000307096
 Iter   1:  RMS(Cart)=    0.0000394250 RMS(Int)=    0.0000167219
 Iter   2:  RMS(Cart)=    0.0000209530 RMS(Int)=    0.0000097948
 Iter   3:  RMS(Cart)=    0.0000114127 RMS(Int)=    0.0000065521
 Iter   4:  RMS(Cart)=    0.0000064322 RMS(Int)=    0.0000051497
 Iter   5:  RMS(Cart)=    0.0000038083 RMS(Int)=    0.0000045516
 Iter   6:  RMS(Cart)=    0.0000024180 RMS(Int)=    0.0000042591
 Iter   7:  RMS(Cart)=    0.0000016797 RMS(Int)=    0.0000040764
 Iter   8:  RMS(Cart)=    0.0000012859 RMS(Int)=    0.0000039351
 Iter   9:  RMS(Cart)=    0.0000010715 RMS(Int)=    0.0000038113
 Iter  10:  RMS(Cart)=    0.0000009488 RMS(Int)=    0.0000036966
 Iter  11:  RMS(Cart)=    0.0000008729 RMS(Int)=    0.0000035877
 Iter  12:  RMS(Cart)=    0.0000008213 RMS(Int)=    0.0000034832
 Iter  13:  RMS(Cart)=    0.0000007826 RMS(Int)=    0.0000033824
 Iter  14:  RMS(Cart)=    0.0000007513 RMS(Int)=    0.0000032851
 Iter  15:  RMS(Cart)=    0.0000007243 RMS(Int)=    0.0000031909
 Iter  16:  RMS(Cart)=    0.0000006999 RMS(Int)=    0.0000030998
 Iter  17:  RMS(Cart)=    0.0000006774 RMS(Int)=    0.0000030115
 Iter  18:  RMS(Cart)=    0.0000006562 RMS(Int)=    0.0000029260
 Iter  19:  RMS(Cart)=    0.0000006360 RMS(Int)=    0.0000028433
 Iter  20:  RMS(Cart)=    0.0000006167 RMS(Int)=    0.0000027631
 Iter  21:  RMS(Cart)=    0.0000005981 RMS(Int)=    0.0000026854
 Iter  22:  RMS(Cart)=    0.0000005802 RMS(Int)=    0.0000026101
 Iter  23:  RMS(Cart)=    0.0000005629 RMS(Int)=    0.0000025372
 Iter  24:  RMS(Cart)=    0.0000005462 RMS(Int)=    0.0000024665
 Iter  25:  RMS(Cart)=    0.0000005300 RMS(Int)=    0.0000023981
 Iter  26:  RMS(Cart)=    0.0000005143 RMS(Int)=    0.0000023317
 Iter  27:  RMS(Cart)=    0.0000004992 RMS(Int)=    0.0000022674
 Iter  28:  RMS(Cart)=    0.0000004845 RMS(Int)=    0.0000022051
 Iter  29:  RMS(Cart)=    0.0000004703 RMS(Int)=    0.0000021446
 Iter  30:  RMS(Cart)=    0.0000004566 RMS(Int)=    0.0000020861
 Iter  31:  RMS(Cart)=    0.0000004432 RMS(Int)=    0.0000020293
 Iter  32:  RMS(Cart)=    0.0000004303 RMS(Int)=    0.0000019742
 Iter  33:  RMS(Cart)=    0.0000004178 RMS(Int)=    0.0000019208
 Iter  34:  RMS(Cart)=    0.0000004057 RMS(Int)=    0.0000018691
 Iter  35:  RMS(Cart)=    0.0000003939 RMS(Int)=    0.0000018189
 Iter  36:  RMS(Cart)=    0.0000003826 RMS(Int)=    0.0000017702
 Iter  37:  RMS(Cart)=    0.0000003715 RMS(Int)=    0.0000017230
 Iter  38:  RMS(Cart)=    0.0000003608 RMS(Int)=    0.0000016772
 Iter  39:  RMS(Cart)=    0.0000003505 RMS(Int)=    0.0000016328
 Iter  40:  RMS(Cart)=    0.0000003404 RMS(Int)=    0.0000015897
 Iter  41:  RMS(Cart)=    0.0000003307 RMS(Int)=    0.0000015479
 Iter  42:  RMS(Cart)=    0.0000003212 RMS(Int)=    0.0000015074
 Iter  43:  RMS(Cart)=    0.0000003121 RMS(Int)=    0.0000014680
 Iter  44:  RMS(Cart)=    0.0000003032 RMS(Int)=    0.0000014299
 Iter  45:  RMS(Cart)=    0.0000002946 RMS(Int)=    0.0000013928
 Iter  46:  RMS(Cart)=    0.0000002863 RMS(Int)=    0.0000013569
 Iter  47:  RMS(Cart)=    0.0000002782 RMS(Int)=    0.0000013220
 Iter  48:  RMS(Cart)=    0.0000002703 RMS(Int)=    0.0000012882
 Iter  49:  RMS(Cart)=    0.0000002627 RMS(Int)=    0.0000012553
 Iter  50:  RMS(Cart)=    0.0000002553 RMS(Int)=    0.0000012234
 Iter  51:  RMS(Cart)=    0.0000002482 RMS(Int)=    0.0000011924
 Iter  52:  RMS(Cart)=    0.0000002412 RMS(Int)=    0.0000011624
 Iter  53:  RMS(Cart)=    0.0000002345 RMS(Int)=    0.0000011332
 Iter  54:  RMS(Cart)=    0.0000002280 RMS(Int)=    0.0000011049
 Iter  55:  RMS(Cart)=    0.0000002216 RMS(Int)=    0.0000010774
 Iter  56:  RMS(Cart)=    0.0000002155 RMS(Int)=    0.0000010507
 Iter  57:  RMS(Cart)=    0.0000002095 RMS(Int)=    0.0000010247
 Iter  58:  RMS(Cart)=    0.0000002037 RMS(Int)=    0.0000009995
 Iter  59:  RMS(Cart)=    0.0000001981 RMS(Int)=    0.0000009751
 Iter  60:  RMS(Cart)=    0.0000001927 RMS(Int)=    0.0000009513
 Iter  61:  RMS(Cart)=    0.0000001874 RMS(Int)=    0.0000009282
 Iter  62:  RMS(Cart)=    0.0000001823 RMS(Int)=    0.0000009058
 Iter  63:  RMS(Cart)=    0.0000001773 RMS(Int)=    0.0000008841
 Iter  64:  RMS(Cart)=    0.0000001724 RMS(Int)=    0.0000008629
 Iter  65:  RMS(Cart)=    0.0000001677 RMS(Int)=    0.0000008423
 Iter  66:  RMS(Cart)=    0.0000001632 RMS(Int)=    0.0000008224
 Iter  67:  RMS(Cart)=    0.0000001588 RMS(Int)=    0.0000008030
 Iter  68:  RMS(Cart)=    0.0000001545 RMS(Int)=    0.0000007841
 Iter  69:  RMS(Cart)=    0.0000001503 RMS(Int)=    0.0000007658
 Iter  70:  RMS(Cart)=    0.0000001463 RMS(Int)=    0.0000007480
 Iter  71:  RMS(Cart)=    0.0000001423 RMS(Int)=    0.0000007307
 Iter  72:  RMS(Cart)=    0.0000001385 RMS(Int)=    0.0000007139
 Iter  73:  RMS(Cart)=    0.0000001348 RMS(Int)=    0.0000006975
 Iter  74:  RMS(Cart)=    0.0000001312 RMS(Int)=    0.0000006816
 Iter  75:  RMS(Cart)=    0.0000001277 RMS(Int)=    0.0000006661
 Iter  76:  RMS(Cart)=    0.0000001243 RMS(Int)=    0.0000006511
 Iter  77:  RMS(Cart)=    0.0000001210 RMS(Int)=    0.0000006365
 Iter  78:  RMS(Cart)=    0.0000001179 RMS(Int)=    0.0000006223
 Iter  79:  RMS(Cart)=    0.0000001147 RMS(Int)=    0.0000006085
 Iter  80:  RMS(Cart)=    0.0000001117 RMS(Int)=    0.0000005950
 Iter  81:  RMS(Cart)=    0.0000001088 RMS(Int)=    0.0000005820
 Iter  82:  RMS(Cart)=    0.0000001059 RMS(Int)=    0.0000005693
 Iter  83:  RMS(Cart)=    0.0000001032 RMS(Int)=    0.0000005569
 Iter  84:  RMS(Cart)=    0.0000001005 RMS(Int)=    0.0000005449
 Iter  85:  RMS(Cart)=    0.0000000979 RMS(Int)=    0.0000005332
 Iter  86:  RMS(Cart)=    0.0000000953 RMS(Int)=    0.0000005218
 Iter  87:  RMS(Cart)=    0.0000000929 RMS(Int)=    0.0000005107
 Iter  88:  RMS(Cart)=    0.0000000905 RMS(Int)=    0.0000004999
 Iter  89:  RMS(Cart)=    0.0000000882 RMS(Int)=    0.0000004894
 Iter  90:  RMS(Cart)=    0.0000000859 RMS(Int)=    0.0000004792
 Iter  91:  RMS(Cart)=    0.0000000837 RMS(Int)=    0.0000004692
 Iter  92:  RMS(Cart)=    0.0000000816 RMS(Int)=    0.0000004596
 Iter  93:  RMS(Cart)=    0.0000000795 RMS(Int)=    0.0000004501
 Iter  94:  RMS(Cart)=    0.0000000775 RMS(Int)=    0.0000004409
 Iter  95:  RMS(Cart)=    0.0000000755 RMS(Int)=    0.0000004320
 Iter  96:  RMS(Cart)=    0.0000000736 RMS(Int)=    0.0000004233
 Iter  97:  RMS(Cart)=    0.0000000717 RMS(Int)=    0.0000004148
 Iter  98:  RMS(Cart)=    0.0000000699 RMS(Int)=    0.0000004066
 Iter  99:  RMS(Cart)=    0.0000000682 RMS(Int)=    0.0000003985
 RMS(Cart) too big - taking linear step, building new B-matrix and trying again
Imposing constraints:
 Iter   0:  RMS(Cart)=    0.0000394254 RMS(Int)=    0.0000167219
 Iter   1:  RMS(Cart)=    0.0000209532 RMS(Int)=    0.0000097948
 Iter   2:  RMS(Cart)=    0.0000114127 RMS(Int)=    0.0000065520
 Iter   3:  RMS(Cart)=    0.0000064322 RMS(Int)=    0.0000051496
 Iter   4:  RMS(Cart)=    0.0000038083 RMS(Int)=    0.0000045516
 Iter   5:  RMS(Cart)=    0.0000024180 RMS(Int)=    0.0000042590
 Iter   6:  RMS(Cart)=    0.0000016797 RMS(Int)=    0.0000040764
 Iter   7:  RMS(Cart)=    0.0000012859 RMS(Int)=    0.0000039351
 Iter   8:  RMS(Cart)=    0.0000010714 RMS(Int)=    0.0000038113
 Iter   9:  RMS(Cart)=    0.0000009488 RMS(Int)=    0.0000036966
 Iter  10:  RMS(Cart)=    0.0000008729 RMS(Int)=    0.0000035877
 Iter  11:  RMS(Cart)=    0.0000008212 RMS(Int)=    0.0000034832
 Iter  12:  RMS(Cart)=    0.0000007826 RMS(Int)=    0.0000033825
 Iter  13:  RMS(Cart)=    0.0000007513 RMS(Int)=    0.0000032851
 Iter  14:  RMS(Cart)=    0.0000007243 RMS(Int)=    0.0000031909
 Iter  15:  RMS(Cart)=    0.0000006999 RMS(Int)=    0.0000030998
 Iter  16:  RMS(Cart)=    0.0000006774 RMS(Int)=    0.0000030115
 Iter  17:  RMS(Cart)=    0.0000006562 RMS(Int)=    0.0000029261
 Iter  18:  RMS(Cart)=    0.0000006360 RMS(Int)=    0.0000028433
 Iter  19:  RMS(Cart)=    0.0000006167 RMS(Int)=    0.0000027631
 Iter  20:  RMS(Cart)=    0.0000005981 RMS(Int)=    0.0000026854
 Iter  21:  RMS(Cart)=    0.0000005802 RMS(Int)=    0.0000026102
 Iter  22:  RMS(Cart)=    0.0000005629 RMS(Int)=    0.0000025372
 Iter  23:  RMS(Cart)=    0.0000005462 RMS(Int)=    0.0000024666
 Iter  24:  RMS(Cart)=    0.0000005300 RMS(Int)=    0.0000023981
 Iter  25:  RMS(Cart)=    0.0000005143 RMS(Int)=    0.0000023318
 Iter  26:  RMS(Cart)=    0.0000004992 RMS(Int)=    0.0000022674
 Iter  27:  RMS(Cart)=    0.0000004845 RMS(Int)=    0.0000022051
 Iter  28:  RMS(Cart)=    0.0000004703 RMS(Int)=    0.0000021447
 Iter  29:  RMS(Cart)=    0.0000004566 RMS(Int)=    0.0000020861
 Iter  30:  RMS(Cart)=    0.0000004432 RMS(Int)=    0.0000020293
 Iter  31:  RMS(Cart)=    0.0000004303 RMS(Int)=    0.0000019743
 Iter  32:  RMS(Cart)=    0.0000004178 RMS(Int)=    0.0000019209
 Iter  33:  RMS(Cart)=    0.0000004057 RMS(Int)=    0.0000018691
 Iter  34:  RMS(Cart)=    0.0000003939 RMS(Int)=    0.0000018189
 Iter  35:  RMS(Cart)=    0.0000003826 RMS(Int)=    0.0000017703
 Iter  36:  RMS(Cart)=    0.0000003715 RMS(Int)=    0.0000017231
 Iter  37:  RMS(Cart)=    0.0000003608 RMS(Int)=    0.0000016773
 Iter  38:  RMS(Cart)=    0.0000003505 RMS(Int)=    0.0000016329
 Iter  39:  RMS(Cart)=    0.0000003404 RMS(Int)=    0.0000015898
 Iter  40:  RMS(Cart)=    0.0000003307 RMS(Int)=    0.0000015480
 Iter  41:  RMS(Cart)=    0.0000003212 RMS(Int)=    0.0000015074
 Iter  42:  RMS(Cart)=    0.0000003121 RMS(Int)=    0.0000014681
 Iter  43:  RMS(Cart)=    0.0000003032 RMS(Int)=    0.0000014299
 Iter  44:  RMS(Cart)=    0.0000002946 RMS(Int)=    0.0000013929
 Iter  45:  RMS(Cart)=    0.0000002863 RMS(Int)=    0.0000013569
 Iter  46:  RMS(Cart)=    0.0000002782 RMS(Int)=    0.0000013221
 Iter  47:  RMS(Cart)=    0.0000002703 RMS(Int)=    0.0000012882
 Iter  48:  RMS(Cart)=    0.0000002627 RMS(Int)=    0.0000012553
 Iter  49:  RMS(Cart)=    0.0000002553 RMS(Int)=    0.0000012234
 Iter  50:  RMS(Cart)=    0.0000002482 RMS(Int)=    0.0000011925
 Iter  51:  RMS(Cart)=    0.0000002412 RMS(Int)=    0.0000011624
 Iter  52:  RMS(Cart)=    0.0000002345 RMS(Int)=    0.0000011333
 Iter  53:  RMS(Cart)=    0.0000002280 RMS(Int)=    0.0000011049
 Iter  54:  RMS(Cart)=    0.0000002216 RMS(Int)=    0.0000010774
 Iter  55:  RMS(Cart)=    0.0000002155 RMS(Int)=    0.0000010507
 Iter  56:  RMS(Cart)=    0.0000002095 RMS(Int)=    0.0000010248
 Iter  57:  RMS(Cart)=    0.0000002037 RMS(Int)=    0.0000009996
CONVERGED
Small eigenvalue found = 8.426e-03
Small eigenvalue found = 1.292e-02
Small eigenvalue found = 1.616e-02
The first mode is                       ....   91
The number of degrees of freedom        ....   81
Storing new coordinates                 .... done

    -----------------------------------------------------------------
                    Redundant Internal Coordinates


    -----------------------------------------------------------------
         Definition                    Initial Value    Approx d2E/dq
    -----------------------------------------------------------------
      1. B(C   1,C   0)                  1.5333         0.369027   
      2. B(C   2,C   1)                  1.5471         0.350825   
      3. B(C   3,C   2)                  1.5492         0.348147   
      4. B(O   4,C   0)                  1.4668         0.422031   
      5. B(O   4,C   3)                  1.4789         0.403699   
      6. B(H   5,C   0)                  1.0919         0.357632   
      7. B(H   6,C   1)                  1.0958         0.352561   
      8. B(H   7,C   1)                  1.0951         0.353431   
      9. B(H   8,C   2)                  1.0945         0.354166   
     10. B(H   9,C   2)                  1.0966         0.351438   
     11. B(H  10,C   3)                  1.0954         0.353010   
     12. B(H  11,C   3)                  1.0939         0.354989   
     13. B(H  13,C  12)                  1.0976         0.350185   
     14. B(H  14,C  12)                  1.0973         0.350563   
     15. B(O  15,C   0)                  1.5525         0.307993   
     16. B(O  15,C  12)                  1.5536         0.306803   
     17. B(C  16,C  12)                  1.5531         0.343142   
     18. B(C  17,C  16)                  1.5330         0.369540   
     19. B(C  18,C  17)                  1.5483         0.349266   
     20. B(C  19,C  18)                  1.5500         0.347111   
     21. B(O  20,C  16)                  1.4670         0.421760   
     22. B(O  20,C  19)                  1.4783         0.404583   
     23. B(H  21,C  16)                  1.0919         0.357563   
     24. B(O  22,C  17)                  1.5533         0.307198   
     25. B(H  23,C  17)                  1.0943         0.354515   
     26. B(H  24,C  18)                  1.0938         0.355061   
     27. B(H  25,C  18)                  1.0962         0.351994   
     28. B(H  26,C  19)                  1.0941         0.354739   
     29. B(H  27,C  19)                  1.0935         0.355481   
     30. B(H  28,O  22)                  1.0975         0.313770   
     31. A(O   4,C   0,H   5)          107.0225         0.328541   
     32. A(C   1,C   0,O  15)          111.3011         0.348740   
     33. A(C   1,C   0,O   4)          104.2482         0.367935   
     34. A(O   4,C   0,O  15)          110.4737         0.354548   
     35. A(C   1,C   0,H   5)          114.4370         0.323302   
     36. A(H   5,C   0,O  15)          109.1584         0.312058   
     37. A(C   0,C   1,C   2)          101.6798         0.358729   
     38. A(C   2,C   1,H   7)          112.8316         0.320016   
     39. A(C   2,C   1,H   6)          110.6710         0.319888   
     40. A(C   0,C   1,H   6)          110.0676         0.322546   
     41. A(H   6,C   1,H   7)          108.3682         0.289027   
     42. A(C   0,C   1,H   7)          113.1242         0.322677   
     43. A(C   1,C   2,H   8)          112.8319         0.320125   
     44. A(C   1,C   2,C   3)          103.1263         0.355196   
     45. A(C   1,C   2,H   9)          110.0801         0.319721   
     46. A(C   3,C   2,H   9)          110.6153         0.319321   
     47. A(C   3,C   2,H   8)          112.4040         0.319725   
     48. A(H   8,C   2,H   9)          107.7727         0.288977   
     49. A(O   4,C   3,H  10)          109.1297         0.325449   
     50. A(C   2,C   3,H  10)          112.5253         0.319554   
     51. A(C   2,C   3,O   4)          106.5278         0.361529   
     52. A(O   4,C   3,H  11)          107.1236         0.325748   
     53. A(H  10,C   3,H  11)          108.8728         0.289284   
     54. A(C   2,C   3,H  11)          112.4566         0.319846   
     55. A(C   0,O   4,C   3)          108.3150         0.371320   
     56. A(H  14,C  12,C  16)          107.7498         0.318438   
     57. A(H  13,C  12,H  14)          108.2280         0.288353   
     58. A(H  13,C  12,O  15)          109.2283         0.310803   
     59. A(H  14,C  12,O  15)          110.4391         0.310857   
     60. A(O  15,C  12,C  16)          112.7449         0.344276   
     61. A(H  13,C  12,C  16)          108.3275         0.318382   
     62. A(C   0,O  15,C  12)          115.1640         0.336058   
     63. A(C  12,C  16,C  17)          111.3000         0.357465   
     64. A(C  12,C  16,O  20)          110.4582         0.363341   
     65. A(C  17,C  16,O  20)          104.2774         0.367982   
     66. A(C  12,C  16,H  21)          109.1268         0.319467   
     67. A(C  17,C  16,H  21)          114.4366         0.323366   
     68. A(O  20,C  16,H  21)          107.0451         0.328496   
     69. A(C  16,C  17,C  18)          101.6694         0.358542   
     70. A(C  16,C  17,O  22)          110.0671         0.348670   
     71. A(C  18,C  17,O  22)          110.6672         0.345375   
     72. A(C  16,C  17,H  23)          113.2109         0.322912   
     73. A(C  18,C  17,H  23)          112.8129         0.319944   
     74. A(O  22,C  17,H  23)          108.3186         0.311486   
     75. A(C  17,C  18,C  19)          103.0869         0.354749   
     76. A(C  17,C  18,H  24)          112.8142         0.320024   
     77. A(C  19,C  18,H  24)          112.4476         0.319701   
     78. A(C  17,C  18,H  25)          110.0022         0.319571   
     79. A(C  19,C  18,H  25)          110.6644         0.319248   
     80. A(H  24,C  18,H  25)          107.8107         0.289163   
     81. A(C  18,C  19,O  20)          106.5454         0.361480   
     82. A(C  18,C  19,H  26)          112.4988         0.319654   
     83. A(O  20,C  19,H  26)          109.1802         0.325827   
     84. A(C  18,C  19,H  27)          112.4246         0.319763   
     85. A(O  20,C  19,H  27)          107.1500         0.325939   
     86. A(H  26,C  19,H  27)          108.8438         0.289569   
     87. A(C  16,O  20,C  19)          108.3261         0.371419   
     88. A(C  17,O  22,H  28)          109.6511         0.302900   
     89. D(H   7,C   1,C   0,H   5)     82.1514         0.010890   
     90. D(C   2,C   1,C   0,O  15)     79.0864         0.010890   
     91. D(H   7,C   1,C   0,O  15)    -42.1870         0.010890   
     92. D(H   6,C   1,C   0,O   4)     77.3262         0.010890   
     93. D(H   6,C   1,C   0,O  15)   -163.5728         0.010890   
     94. D(H   6,C   1,C   0,H   5)    -39.2344         0.010890   
     95. D(H   7,C   1,C   0,O   4)   -161.2880         0.010890   
     96. D(C   2,C   1,C   0,O   4)    -40.0145         0.010890 C 
     97. D(C   2,C   1,C   0,H   5)   -156.5752         0.010890   
     98. D(H   9,C   2,C   1,H   6)    160.0776         0.009912   
     99. D(H   8,C   2,C   1,C   0)    156.5479         0.009912   
    100. D(H   8,C   2,C   1,H   6)     39.6445         0.009912   
    101. D(C   3,C   2,C   1,C   0)     35.0270         0.009912 C 
    102. D(H   8,C   2,C   1,H   7)    -81.9753         0.009912   
    103. D(H   9,C   2,C   1,C   0)    -83.0191         0.009912   
    104. D(C   3,C   2,C   1,H   6)    -81.8763         0.009912   
    105. D(H   9,C   2,C   1,H   7)     38.4578         0.009912   
    106. D(C   3,C   2,C   1,H   7)    156.5039         0.009912   
    107. D(H  11,C   3,C   2,H   9)   -143.4628         0.009774   
    108. D(O   4,C   3,C   2,H   8)   -140.0066         0.009774   
    109. D(O   4,C   3,C   2,H   9)     99.4739         0.009774   
    110. D(H  10,C   3,C   2,C   1)   -137.7433         0.009774   
    111. D(H  10,C   3,C   2,H   8)    100.4468         0.009774   
    112. D(H  10,C   3,C   2,H   9)    -20.0727         0.009774   
    113. D(H  11,C   3,C   2,C   1)     98.8667         0.009774   
    114. D(O   4,C   3,C   2,C   1)    -18.1967         0.009774 C 
    115. D(H  11,C   3,C   2,H   8)    -22.9433         0.009774   
    116. D(C   3,O   4,C   0,C   1)     29.5918         0.014035 C 
    117. D(C   3,O   4,C   0,H   5)    151.2010         0.014035   
    118. D(C   3,O   4,C   0,O  15)    -90.0700         0.014035   
    119. D(C   0,O   4,C   3,C   2)     -6.8732         0.012866 C 
    120. D(C   0,O   4,C   3,H  10)    114.8547         0.012866   
    121. D(C   0,O   4,C   3,H  11)   -127.4272         0.012866   
    122. D(C   0,O  15,C  12,C  16)    120.0000         0.007741 C 
    123. D(C  12,O  15,C   0,O   4)    165.0000         0.007793 C 
    124. D(C  12,O  15,C   0,H   5)    -77.5792         0.007793   
    125. D(C   0,O  15,C  12,H  14)     -0.5981         0.007741   
    126. D(C   0,O  15,C  12,H  13)   -119.5138         0.007741   
    127. D(C  12,O  15,C   0,C   1)     49.6874         0.007793   
    128. D(C  17,C  16,C  12,H  13)    -56.3423         0.009518   
    129. D(H  21,C  16,C  12,H  14)     59.5434         0.009518   
    130. D(C  17,C  16,C  12,O  15)     64.6589         0.009518   
    131. D(O  20,C  16,C  12,H  13)     58.9962         0.009518   
    132. D(O  20,C  16,C  12,H  14)    -57.8770         0.009518   
    133. D(O  20,C  16,C  12,O  15)    179.9973         0.009518 C 
    134. D(C  17,C  16,C  12,H  14)   -173.2154         0.009518   
    135. D(H  21,C  16,C  12,H  13)    176.4165         0.009518   
    136. D(H  21,C  16,C  12,O  15)    -62.5824         0.009518   
    137. D(C  18,C  17,C  16,C  12)     79.0905         0.010918   
    138. D(C  18,C  17,C  16,O  20)    -40.0087         0.010918 C 
    139. D(C  18,C  17,C  16,H  21)   -156.6151         0.010918   
    140. D(O  22,C  17,C  16,C  12)   -163.5788         0.010918   
    141. D(O  22,C  17,C  16,O  20)     77.3221         0.010918   
    142. D(O  22,C  17,C  16,H  21)    -39.2844         0.010918   
    143. D(H  23,C  17,C  16,C  12)    -42.1974         0.010918   
    144. D(H  23,C  17,C  16,O  20)   -161.2966         0.010918   
    145. D(H  23,C  17,C  16,H  21)     82.0970         0.010918   
    146. D(H  24,C  18,C  17,H  23)    -81.8953         0.009832   
    147. D(C  19,C  18,C  17,O  22)    -81.8946         0.009832   
    148. D(C  19,C  18,C  17,H  23)    156.5656         0.009832   
    149. D(H  24,C  18,C  17,C  16)    156.5401         0.009832   
    150. D(C  19,C  18,C  17,C  16)     35.0010         0.009832 C 
    151. D(H  24,C  18,C  17,O  22)     39.6445         0.009832   
    152. D(H  25,C  18,C  17,C  16)    -83.0450         0.009832   
    153. D(H  25,C  18,C  17,O  22)    160.0593         0.009832   
    154. D(H  25,C  18,C  17,H  23)     38.5196         0.009832   
    155. D(H  27,C  19,C  18,H  25)   -143.5040         0.009720   
    156. D(O  20,C  19,C  18,H  24)   -139.9605         0.009720   
    157. D(O  20,C  19,C  18,H  25)     99.4073         0.009720   
    158. D(H  26,C  19,C  18,C  17)   -137.7782         0.009720   
    159. D(H  26,C  19,C  18,H  24)    100.4349         0.009720   
    160. D(H  26,C  19,C  18,H  25)    -20.1973         0.009720   
    161. D(H  27,C  19,C  18,C  17)     98.9151         0.009720   
    162. D(O  20,C  19,C  18,C  17)    -18.1736         0.009720 C 
    163. D(H  27,C  19,C  18,H  24)    -22.8717         0.009720   
    164. D(C  19,O  20,C  16,C  12)    -90.0609         0.014017   
    165. D(C  19,O  20,C  16,C  17)     29.6085         0.014017 C 
    166. D(C  19,O  20,C  16,H  21)    151.2433         0.014017   
    167. D(C  16,O  20,C  19,C  18)     -6.8770         0.012921 C 
    168. D(C  16,O  20,C  19,H  26)    114.8580         0.012921   
    169. D(C  16,O  20,C  19,H  27)   -127.4168         0.012921   
    170. D(H  28,O  22,C  17,C  16)    -55.8203         0.007758   
    171. D(H  28,O  22,C  17,C  18)     55.7685         0.007758   
    172. D(H  28,O  22,C  17,H  23)    179.9211         0.007758   
    -----------------------------------------------------------------

Number of atoms                         .... 29
Number of degrees of freedom            .... 172

Time needed for optimization step       :    11.22 sec

         *************************************************************
         *                GEOMETRY OPTIMIZATION CYCLE   1            *
         *************************************************************
---------------------------------
CARTESIAN COORDINATES (ANGSTROEM)
---------------------------------
  C    -21.048029   26.221870   46.251077
  C    -20.361056   27.557862   45.943938
  C    -20.329053   28.222022   47.340870
  C    -20.110017   27.022116   48.295978
  O    -20.472997   25.807040   47.535111
  H    -20.833018   25.427831   45.533122
  H    -19.344059   27.381843   45.575938
  H    -20.898081   28.156779   45.200889
  H    -19.543069   28.978049   47.433783
  H    -21.289060   28.710024   47.547833
  H    -20.733005   27.082189   49.194981
  H    -19.064010   26.913168   48.596972
  C    -23.259994   27.170006   45.210126
  H    -23.748993   28.067979   45.609188
  H    -22.508982   27.486057   44.475160
  O    -22.586024   26.393916   46.375083
  C    -24.326954   26.324053   44.463015
  C    -25.505982   25.978961   45.379945
  C    -26.315000   27.298952   45.360028
  C    -26.108955   27.815075   43.913078
  O    -24.929928   27.103136   43.376060
  H    -23.841926   25.459097   44.005961
  O    -26.335944   24.818001   44.766818
  H    -25.197013   25.685881   46.387931
  H    -27.371006   27.152917   45.604979
  H    -25.897035   28.005897   46.086102
  H    -25.925968   28.893081   43.875175
  H    -26.953929   27.577118   43.261029
  H    -26.658913   25.090081   43.753830

----------------------------
CARTESIAN COORDINATES (A.U.)
----------------------------
  NO LB      ZA    FRAG     MASS         X           Y           Z
   0 C     6.0000    0    12.011  -39.775011   49.552152   87.401868
   1 C     6.0000    0    12.011  -38.476819   52.076813   86.821461
   2 C     6.0000    0    12.011  -38.416343   53.331892   89.461280
   3 C     6.0000    0    12.011  -38.002424   51.064399   91.266171
   4 O     8.0000    0    15.999  -38.688358   48.768238   89.828342
   5 H     1.0000    0     1.008  -39.368699   48.051637   86.045131
   6 H     1.0000    0     1.008  -36.554974   51.744184   86.126042
   7 H     1.0000    0     1.008  -39.491649   53.208601   85.417301
   8 H     1.0000    0     1.008  -36.931048   54.760577   89.636860
   9 H     1.0000    0     1.008  -40.230493   54.254083   89.852383
  10 H     1.0000    0     1.008  -39.179701   51.177920   92.965041
  11 H     1.0000    0     1.008  -36.025757   50.858516   91.834969
  12 C     6.0000    0    12.011  -43.955019   51.343870   85.434756
  13 H     1.0000    0     1.008  -44.879093   53.040793   86.188874
  14 H     1.0000    0     1.008  -42.535812   51.941120   84.045872
  15 O     8.0000    0    15.999  -42.681399   49.877272   87.636206
  16 C     6.0000    0    12.011  -45.971280   49.745251   84.022921
  17 C     6.0000    0    12.011  -48.199321   49.093121   85.755667
  18 C     6.0000    0    12.011  -49.728142   51.587543   85.718030
  19 C     6.0000    0    12.011  -49.338775   52.562874   82.983692
  20 O     8.0000    0    15.999  -47.110736   51.217505   81.968874
  21 H     1.0000    0     1.008  -45.054712   48.110720   83.159215
  22 O     8.0000    0    15.999  -49.767722   46.899225   84.597027
  23 H     1.0000    0     1.008  -47.615454   48.539281   87.660486
  24 H     1.0000    0     1.008  -51.723706   51.311578   86.180921
  25 H     1.0000    0     1.008  -48.938303   52.923475   87.090111
  26 H     1.0000    0     1.008  -48.992980   54.600010   82.912064
  27 H     1.0000    0     1.008  -50.935545   52.113201   81.751497
  28 H     1.0000    0     1.008  -50.378044   47.413382   82.682756

--------------------------------
INTERNAL COORDINATES (ANGSTROEM)
--------------------------------
 C      0   0   0     0.000000000000     0.00000000     0.00000000
 C      1   0   0     1.533334275362     0.00000000     0.00000000
 C      2   1   0     1.547103422529   101.67907390     0.00000000
 C      3   2   1     1.549188819996   103.12737509    35.02687180
 O      1   2   3     1.466801281701   104.24948604   319.98542309
 H      1   2   3     1.091872245274   114.43876658   203.42640133
 H      2   1   3     1.095759553917   110.06782188   117.34000099
 H      2   1   3     1.095088580892   113.12442239   238.72597460
 H      3   2   1     1.094523183857   112.83161078   156.54780790
 H      3   2   1     1.096628013503   110.07982737   276.98070077
 H      4   3   2     1.095413164062   112.52534669   222.25678475
 H      4   3   2     1.093891219455   112.45670684    98.86663270
 C      8   2   1     2.559940233677   103.83785452    19.06728176
 H     13   8   2     1.097600109329    95.56097904   114.20089916
 H     13   8   2     1.097306702796    41.85207534   225.44469138
 O      1   2   3     1.552547583812   111.30349807    79.08752829
 C     13   8   2     1.553130387315   147.37349898   251.76329101
 C     17  13   8     1.532956294224   111.30015617   168.68945708
 C     18  17  13     1.548315536317   101.66931848    79.09059452
 C     19  18  17     1.550000322581   103.08695710    35.00102042
 O     17  13   8     1.466976141592   110.45816851   284.02806684
 H     17  13   8     1.091924447936   109.12663194    41.44806628
 O     18  17  13     1.553251428456   110.06713836   196.42128969
 H     18  17  13     1.094254997704   113.21092892   317.80266554
 H     19  18  17     1.093835910912   112.81418047   156.54011831
 H     19  18  17     1.096197518698   110.00219181   276.95498640
 H     20  19  18     1.094082720821   112.49877498   222.22182442
 H     20  19  18     1.093514060266   112.42456692    98.91512894
 H     23  18  17     1.097488952108   109.65105171   304.17977200

---------------------------
INTERNAL COORDINATES (A.U.)
---------------------------
 C      0   0   0     0.000000000000     0.00000000     0.00000000
 C      1   0   0     2.897581852189     0.00000000     0.00000000
 C      2   1   0     2.923601769431   101.67907390     0.00000000
 C      3   2   1     2.927542599525   103.12737509    35.02687180
 O      1   2   3     2.771852715300   104.24948604   319.98542309
 H      1   2   3     2.063339516798   114.43876658   203.42640133
 H      2   1   3     2.070685465531   110.06782188   117.34000099
 H      2   1   3     2.069417510270   113.12442239   238.72597460
 H      3   2   1     2.068349064717   112.83161078   156.54780790
 H      3   2   1     2.072326616307   110.07982737   276.98070077
 H      4   3   2     2.070030883569   112.52534669   222.25678475
 H      4   3   2     2.067154825070   112.45670684    98.86663270
 C      8   2   1     4.837585960857   103.83785452    19.06728176
 H     13   8   2     2.074163611195    95.56097904   114.20089916
 H     13   8   2     2.073609153200    41.85207534   225.44469138
 O      1   2   3     2.933889743286   111.30349807    79.08752829
 C     13   8   2     2.934991082296   147.37349898   251.76329101
 C     17  13   8     2.896867571354   111.30015617   168.68945708
 C     18  17  13     2.925892332534   101.66931848    79.09059452
 C     19  18  17     2.929076117167   103.08695710    35.00102042
 O     17  13   8     2.772183152605   110.45816851   284.02806684
 H     17  13   8     2.063438165532   109.12663194    41.44806628
 O     18  17  13     2.935219816903   110.06713836   196.42128969
 H     18  17  13     2.067842266335   113.21092892   317.80266554
 H     19  18  17     2.067050307071   112.81418047   156.54011831
 H     19  18  17     2.071513099024   110.00219181   276.95498640
 H     20  19  18     2.067516710208   112.49877498   222.22182442
 H     20  19  18     2.066442097495   112.42456692    98.91512894
 H     23  18  17     2.073953554489   109.65105171   304.17977200

---------------------
BASIS SET INFORMATION
---------------------
There are 3 groups of distinct atoms

 Group   1 Type C   : 10s4p contracted to 3s2p pattern {631/31}
 Group   2 Type O   : 10s4p contracted to 3s2p pattern {631/31}
 Group   3 Type H   : 4s contracted to 2s pattern {31}

Atom   0C    basis set group =>   1
Atom   1C    basis set group =>   1
Atom   2C    basis set group =>   1
Atom   3C    basis set group =>   1
Atom   4O    basis set group =>   2
Atom   5H    basis set group =>   3
Atom   6H    basis set group =>   3
Atom   7H    basis set group =>   3
Atom   8H    basis set group =>   3
Atom   9H    basis set group =>   3
Atom  10H    basis set group =>   3
Atom  11H    basis set group =>   3
Atom  12C    basis set group =>   1
Atom  13H    basis set group =>   3
Atom  14H    basis set group =>   3
Atom  15O    basis set group =>   2
Atom  16C    basis set group =>   1
Atom  17C    basis set group =>   1
Atom  18C    basis set group =>   1
Atom  19C    basis set group =>   1
Atom  20O    basis set group =>   2
Atom  21H    basis set group =>   3
Atom  22O    basis set group =>   2
Atom  23H    basis set group =>   3
Atom  24H    basis set group =>   3
Atom  25H    basis set group =>   3
Atom  26H    basis set group =>   3
Atom  27H    basis set group =>   3
Atom  28H    basis set group =>   3
------------------------------------------------------------------------------
                           ORCA GTO INTEGRAL CALCULATION
------------------------------------------------------------------------------

                         BASIS SET STATISTICS AND STARTUP INFO

 # of primitive gaussian shells          ...  246
 # of primitive gaussian functions       ...  350
 # of contracted shells                  ...   97
 # of contracted basis functions         ...  149
 Highest angular momentum                ...    1
 Maximum contraction depth               ...    6
 Integral package used                   ... LIBINT
 Integral threshhold            Thresh   ...  2.500e-11
 Primitive cut-off              TCut     ...  2.500e-12


------------------------------ INTEGRAL EVALUATION ----------------------------


 * One electron integrals 
 Pre-screening matrix                    ... done
 Shell pair data                         ... done (   0.002 sec)

-------------------------------------------------------------------------------
                                 ORCA SCF
-------------------------------------------------------------------------------

------------
SCF SETTINGS
------------
Hamiltonian:
 Density Functional     Method          .... DFT(GTOs)
 Exchange Functional    Exchange        .... B88
   X-Alpha parameter    XAlpha          ....  0.666667
   Becke's b parameter  XBeta           ....  0.004200
 Correlation Functional Correlation     .... LYP
 LDA part of GGA corr.  LDAOpt          .... VWN-5
 Gradients option       PostSCFGGA      .... off
 Hybrid DFT is turned on
   Fraction HF Exchange ScalHFX         ....  0.200000
   Scaling of DF-GGA-X  ScalDFX         ....  0.720000
   Scaling of DF-GGA-C  ScalDFC         ....  0.810000
   Scaling of DF-LDA-C  ScalLDAC        ....  1.000000
   Perturbative correction              ....  0.000000
   Density functional embedding theory  .... OFF
   NL short-range parameter             ....  4.800000


General Settings:
 Integral files         IntName         .... project_8050/ensemble_165_120
 Hartree-Fock type      HFTyp           .... RHF
 Total Charge           Charge          ....    0
 Multiplicity           Mult            ....    1
 Number of Electrons    NEL             ....  102
 Basis Dimension        Dim             ....  149
 Nuclear Repulsion      ENuc            ....    850.2085819725 Eh

Convergence Acceleration:
 DIIS                   CNVDIIS         .... on
   Start iteration      DIISMaxIt       ....    12
   Startup error        DIISStart       ....  0.200000
   # of expansion vecs  DIISMaxEq       ....     5
   Bias factor          DIISBfac        ....   1.050
   Max. coefficient     DIISMaxC        ....  10.000
 Newton-Raphson         CNVNR           .... off
 SOSCF                  CNVSOSCF        .... on
   Start iteration      SOSCFMaxIt      ....   150
   Startup grad/error   SOSCFStart      ....  0.003300
 Level Shifting         CNVShift        .... on
   Level shift para.    LevelShift      ....    0.2500
   Turn off err/grad.   ShiftErr        ....    0.0010
 Zerner damping         CNVZerner       .... off
 Static damping         CNVDamp         .... on
   Fraction old density DampFac         ....    0.7000
   Max. Damping (<1)    DampMax         ....    0.9800
   Min. Damping (>=0)   DampMin         ....    0.0000
   Turn off err/grad.   DampErr         ....    0.1000
 Fernandez-Rico         CNVRico         .... off

SCF Procedure:
 Maximum # iterations   MaxIter         ....   125
 SCF integral mode      SCFMode         .... Direct
   Integral package                     .... LIBINT
 Reset frequency        DirectResetFreq ....    20
 Integral Threshold     Thresh          ....  2.500e-11 Eh
 Primitive CutOff       TCut            ....  2.500e-12 Eh

Convergence Tolerance:
 Convergence Check Mode ConvCheckMode   .... Total+1el-Energy
 Convergence forced     ConvForced      .... 0
 Energy Change          TolE            ....  1.000e-08 Eh
 1-El. energy change                    ....  1.000e-05 Eh
 Orbital Gradient       TolG            ....  1.000e-05
 Orbital Rotation angle TolX            ....  1.000e-05
 DIIS Error             TolErr          ....  5.000e-07


Diagonalization of the overlap matrix:
Smallest eigenvalue                        ... 4.089e-03
Time for diagonalization                   ...    0.008 sec
Threshold for overlap eigenvalues          ... 1.000e-08
Number of eigenvalues below threshold      ... 0
Time for construction of square roots      ...    5.788 sec
Total time needed                          ...    6.485 sec

-------------------
DFT GRID GENERATION
-------------------

General Integration Accuracy     IntAcc      ...  4.340
Radial Grid Type                 RadialGrid  ... Gauss-Chebyshev
Angular Grid (max. acc.)         AngularGrid ... Lebedev-110
Angular grid pruning method      GridPruning ... 3 (G Style)
Weight generation scheme         WeightScheme... Becke
Basis function cutoff            BFCut       ...    1.0000e-11
Integration weight cutoff        WCut        ...    1.0000e-14
Grids for H and He will be reduced by one unit

# of grid points (after initial pruning)     ...  34472 (   0.0 sec)
# of grid points (after weights+screening)   ...  31080 (   0.3 sec)
nearest neighbour list constructed           ...    0.0 sec
Grid point re-assignment to atoms done       ...    0.0 sec
Grid point division into batches done        ...    0.0 sec
Reduced shell lists constructed in    0.3 sec

Total number of grid points                  ...    31080
Total number of batches                      ...      501
Average number of points per batch           ...       62
Average number of grid points per atom       ...     1072
Average number of shells per batch           ...    56.81 (58.57%)
Average number of basis functions per batch  ...    91.99 (61.74%)
Average number of large shells per batch     ...    40.17 (70.70%)
Average number of large basis fcns per batch ...    66.28 (72.06%)
Maximum spatial batch extension              ...  19.44, 20.09, 20.09 au
Average spatial batch extension              ...   3.19,  3.50,  3.35 au

Time for grid setup =   12.111 sec

------------------------------
INITIAL GUESS: MODEL POTENTIAL
------------------------------
Loading Hartree-Fock densities                     ... done
Calculating cut-offs                               ... done
Setting up the integral package                    ... done
Initializing the effective Hamiltonian             ... done
Starting the Coulomb interaction                   ... done (   0.4 sec)
Reading the grid                                   ... done
Mapping shells                                     ... done
Starting the XC term evaluation                    ... done (   0.3 sec)
  promolecular density results
     # of electrons  =    101.995243347
     EX              =    -83.666236473
     EC              =     -3.457456739
     EX+EC           =    -87.123693212
Transforming the Hamiltonian                       ... done (   7.8 sec)
Diagonalizing the Hamiltonian                      ... done (   0.0 sec)
Back transforming the eigenvectors                 ... done (   0.0 sec)
Now organizing SCF variables                       ... done
                      ------------------
                      INITIAL GUESS DONE (  23.4 sec)
                      ------------------
--------------
SCF ITERATIONS
--------------
ITER       Energy         Delta-E        Max-DP      RMS-DP      [F,P]     Damp
               ***  Starting incremental Fock matrix formation  ***
  0   -652.5378997620   0.000000000000 0.07769176  0.00299439  0.2477093 0.7000
  1   -652.6760286346  -0.138128872689 0.04553866  0.00204901  0.1083110 0.7000
                               ***Turning on DIIS***
  2   -652.7280375611  -0.052008926461 0.05387277  0.00329026  0.0302656 0.0000
  3   -652.8136686262  -0.085631065063 0.03127434  0.00135540  0.0577053 0.0000
  4   -652.8308670197  -0.017198393548 0.00803665  0.00042295  0.0087536 0.0000
  5   -652.8318445629  -0.000977543190 0.00270589  0.00012844  0.0039260 0.0000
                      *** Initiating the SOSCF procedure ***
                           *** Shutting down DIIS ***
                      *** Re-Reading the Fockian *** 
                      *** Removing any level shift *** 
ITER      Energy       Delta-E        Grad      Rot      Max-DP    RMS-DP
  6   -652.83191433  -0.0000697674  0.000210  0.000210  0.000851  0.000054
               *** Restarting incremental Fock matrix formation ***
  7   -652.83191720  -0.0000028718  0.000103  0.000173  0.000893  0.000029
  8   -652.83191598   0.0000012251  0.000132  0.000127  0.000451  0.000018
  9   -652.83191828  -0.0000023046  0.000024  0.000035  0.000179  0.000006
 10   -652.83191821   0.0000000723  0.000036  0.000023  0.000120  0.000004
 11   -652.83191834  -0.0000001293  0.000003  0.000005  0.000021  0.000001
 12   -652.83191834   0.0000000007  0.000006  0.000003  0.000013  0.000000
                  ***Gradient check signals convergence***
              ***Rediagonalizing the Fockian in SOSCF/NRSCF***

               *****************************************************
               *                     SUCCESS                       *
               *           SCF CONVERGED AFTER  13 CYCLES          *
               *****************************************************

Setting up the final grid:

General Integration Accuracy     IntAcc      ...  4.670
Radial Grid Type                 RadialGrid  ... Gauss-Chebyshev
Angular Grid (max. acc.)         AngularGrid ... Lebedev-302
Angular grid pruning method      GridPruning ... 3 (G Style)
Weight generation scheme         WeightScheme... Becke
Basis function cutoff            BFCut       ...    1.0000e-11
Integration weight cutoff        WCut        ...    1.0000e-14
Grids for H and He will be reduced by one unit

# of grid points (after initial pruning)     ... 135060 (   0.1 sec)
# of grid points (after weights+screening)   ... 119216 (   1.0 sec)
nearest neighbour list constructed           ...    0.0 sec
Grid point re-assignment to atoms done       ...    0.0 sec
Grid point division into batches done        ...    0.4 sec
Reduced shell lists constructed in    1.3 sec

Total number of grid points                  ...   119216
Total number of batches                      ...     1878
Average number of points per batch           ...       63
Average number of grid points per atom       ...     4111
Average number of shells per batch           ...    51.86 (53.46%)
Average number of basis functions per batch  ...    84.26 (56.55%)
Average number of large shells per batch     ...    35.92 (69.27%)
Average number of large basis fcns per batch ...    59.46 (70.57%)
Maximum spatial batch extension              ...  16.69, 19.10, 19.48 au
Average spatial batch extension              ...   2.16,  2.25,  2.23 au

Final grid set up in   11.0 sec
Final integration                            ... done (  18.7 sec)
Change in XC energy                          ...     0.000304416
Integrated number of electrons               ...   101.999902489
Previous integrated no of electrons          ...   102.003300373

----------------
TOTAL SCF ENERGY
----------------

Total Energy       :         -652.83161392 Eh          -17764.45134 eV

Components:
Nuclear Repulsion  :          850.20858197 Eh           23135.35169 eV
Electronic Energy  :        -1503.04019590 Eh          -40899.80304 eV
One Electron Energy:        -2578.04322242 Eh          -70152.12255 eV
Two Electron Energy:         1075.00302652 Eh           29252.31951 eV

Virial components:
Potential Energy   :        -1301.76446581 Eh          -35422.81198 eV
Kinetic Energy     :          648.93285188 Eh           17658.36063 eV
Virial Ratio       :            2.00600796


DFT components:
N(Alpha)           :       50.999951244295 electrons
N(Beta)            :       50.999951244295 electrons
N(Total)           :      101.999902488590 electrons
E(X)               :      -67.590669620783 Eh       
E(C)               :       -4.069123736344 Eh       
E(XC)              :      -71.659793357127 Eh       
DFET-embed. en.    :        0.000000000000 Eh       

---------------
SCF CONVERGENCE
---------------

  Last Energy change         ...   -1.5906e-09  Tolerance :   1.0000e-08
  Last MAX-Density change    ...    3.0312e-06  Tolerance :   1.0000e-07
  Last RMS-Density change    ...    1.1729e-07  Tolerance :   5.0000e-09
  Last Orbital Gradient      ...    3.7984e-07  Tolerance :   1.0000e-05
  Last Orbital Rotation      ...    6.3037e-07  Tolerance :   1.0000e-05

             **** THE GBW FILE WAS UPDATED (project_8050/ensemble_165_120.gbw) ****
             **** DENSITY FILE WAS UPDATED (project_8050/ensemble_165_120.scfp) ****
             **** ENERGY FILE WAS UPDATED (project_8050/ensemble_165_120.en.tmp) ****
             **** THE GBW FILE WAS UPDATED (project_8050/ensemble_165_120.gbw) ****
             **** DENSITY FILE WAS UPDATED (project_8050/ensemble_165_120.scfp) ****
----------------
ORBITAL ENERGIES
----------------

  NO   OCC          E(Eh)            E(eV) 
   0   2.0000     -19.153106      -521.1825 
   1   2.0000     -19.149576      -521.0864 
   2   2.0000     -19.146904      -521.0137 
   3   2.0000     -19.140945      -520.8516 
   4   2.0000     -10.287406      -279.9346 
   5   2.0000     -10.240628      -278.6617 
   6   2.0000     -10.237961      -278.5891 
   7   2.0000     -10.237390      -278.5735 
   8   2.0000     -10.235785      -278.5299 
   9   2.0000     -10.229255      -278.3522 
  10   2.0000     -10.195088      -277.4224 
  11   2.0000     -10.193536      -277.3802 
  12   2.0000     -10.192560      -277.3537 
  13   2.0000      -1.037251       -28.2250 
  14   2.0000      -1.033778       -28.1305 
  15   2.0000      -0.966911       -26.3110 
  16   2.0000      -0.959881       -26.1197 
  17   2.0000      -0.791870       -21.5479 
  18   2.0000      -0.783027       -21.3073 
  19   2.0000      -0.766592       -20.8600 
  20   2.0000      -0.733446       -19.9581 
  21   2.0000      -0.675898       -18.3921 
  22   2.0000      -0.604329       -16.4446 
  23   2.0000      -0.601002       -16.3541 
  24   2.0000      -0.594379       -16.1739 
  25   2.0000      -0.573075       -15.5942 
  26   2.0000      -0.513088       -13.9618 
  27   2.0000      -0.509250       -13.8574 
  28   2.0000      -0.499088       -13.5809 
  29   2.0000      -0.491471       -13.3736 
  30   2.0000      -0.463541       -12.6136 
  31   2.0000      -0.450863       -12.2686 
  32   2.0000      -0.445697       -12.1280 
  33   2.0000      -0.432459       -11.7678 
  34   2.0000      -0.425863       -11.5883 
  35   2.0000      -0.409978       -11.1561 
  36   2.0000      -0.408178       -11.1071 
  37   2.0000      -0.387916       -10.5557 
  38   2.0000      -0.376631       -10.2486 
  39   2.0000      -0.370314       -10.0768 
  40   2.0000      -0.361130        -9.8268 
  41   2.0000      -0.359830        -9.7915 
  42   2.0000      -0.355428        -9.6717 
  43   2.0000      -0.325781        -8.8650 
  44   2.0000      -0.320708        -8.7269 
  45   2.0000      -0.310390        -8.4461 
  46   2.0000      -0.302130        -8.2214 
  47   2.0000      -0.273363        -7.4386 
  48   2.0000      -0.264324        -7.1926 
  49   2.0000      -0.258896        -7.0449 
  50   2.0000      -0.242470        -6.5979 
  51   0.0000       0.036874         1.0034 
  52   0.0000       0.058437         1.5901 
  53   0.0000       0.075548         2.0558 
  54   0.0000       0.090963         2.4752 
  55   0.0000       0.094968         2.5842 
  56   0.0000       0.100905         2.7458 
  57   0.0000       0.110478         3.0063 
  58   0.0000       0.116158         3.1608 
  59   0.0000       0.122527         3.3341 
  60   0.0000       0.138082         3.7574 
  61   0.0000       0.143850         3.9144 
  62   0.0000       0.147114         4.0032 
  63   0.0000       0.150144         4.0856 
  64   0.0000       0.153898         4.1878 
  65   0.0000       0.161169         4.3856 
  66   0.0000       0.168776         4.5926 
  67   0.0000       0.175061         4.7637 
  68   0.0000       0.177678         4.8349 
  69   0.0000       0.195948         5.3320 
  70   0.0000       0.198005         5.3880 
  71   0.0000       0.212066         5.7706 
  72   0.0000       0.219063         5.9610 
  73   0.0000       0.225644         6.1401 
  74   0.0000       0.241537         6.5725 
  75   0.0000       0.247792         6.7428 
  76   0.0000       0.259274         7.0552 
  77   0.0000       0.272859         7.4249 
  78   0.0000       0.283176         7.7056 
  79   0.0000       0.290444         7.9034 
  80   0.0000       0.302592         8.2339 
  81   0.0000       0.519929        14.1480 
  82   0.0000       0.526975        14.3397 
  83   0.0000       0.539786        14.6883 
  84   0.0000       0.547367        14.8946 
  85   0.0000       0.547607        14.9011 
  86   0.0000       0.557848        15.1798 
  87   0.0000       0.565838        15.3972 
  88   0.0000       0.585424        15.9302 
  89   0.0000       0.587476        15.9860 
  90   0.0000       0.591544        16.0967 
  91   0.0000       0.603619        16.4253 
  92   0.0000       0.624746        17.0002 
  93   0.0000       0.627624        17.0785 
  94   0.0000       0.640855        17.4385 
  95   0.0000       0.643698        17.5159 
  96   0.0000       0.647661        17.6238 
  97   0.0000       0.670237        18.2381 
  98   0.0000       0.686529        18.6814 
  99   0.0000       0.703166        19.1341 
 100   0.0000       0.729474        19.8500 
 101   0.0000       0.752799        20.4847 
 102   0.0000       0.774468        21.0743 
 103   0.0000       0.810351        22.0508 
 104   0.0000       0.815850        22.2004 
 105   0.0000       0.829406        22.5693 
 106   0.0000       0.831544        22.6275 
 107   0.0000       0.862829        23.4788 
 108   0.0000       0.866807        23.5870 
 109   0.0000       0.869005        23.6468 
 110   0.0000       0.881175        23.9780 
 111   0.0000       0.886958        24.1354 
 112   0.0000       0.892137        24.2763 
 113   0.0000       0.906276        24.6610 
 114   0.0000       0.915875        24.9222 
 115   0.0000       0.930955        25.3326 
 116   0.0000       0.940207        25.5843 
 117   0.0000       0.947244        25.7758 
 118   0.0000       0.950588        25.8668 
 119   0.0000       0.952844        25.9282 
 120   0.0000       0.961075        26.1522 
 121   0.0000       0.970870        26.4187 
 122   0.0000       0.994520        27.0623 
 123   0.0000       1.007056        27.4034 
 124   0.0000       1.035892        28.1881 
 125   0.0000       1.053294        28.6616 
 126   0.0000       1.067728        29.0544 
 127   0.0000       1.083216        29.4758 
 128   0.0000       1.124698        30.6046 
 129   0.0000       1.152405        31.3585 
 130   0.0000       1.193978        32.4898 
 131   0.0000       1.219389        33.1813 
 132   0.0000       1.262244        34.3474 
 133   0.0000       1.269021        34.5318 
 134   0.0000       1.317115        35.8405 
 135   0.0000       1.321848        35.9693 
 136   0.0000       1.371376        37.3170 
 137   0.0000       1.395746        37.9802 
 138   0.0000       1.434993        39.0481 
 139   0.0000       1.445804        39.3423 
 140   0.0000       1.512543        41.1584 
 141   0.0000       1.569823        42.7171 
 142   0.0000       1.617859        44.0242 
 143   0.0000       1.675157        45.5833 
 144   0.0000       1.754813        47.7509 
 145   0.0000       1.834154        49.9099 
 146   0.0000       1.875633        51.0386 
 147   0.0000       2.047598        55.7180 
 148   0.0000       2.085984        56.7625 

                    ********************************
                    * MULLIKEN POPULATION ANALYSIS *
                    ********************************

-----------------------
MULLIKEN ATOMIC CHARGES
-----------------------
   0 C :    0.302955
   1 C :   -0.289202
   2 C :   -0.298891
   3 C :   -0.001105
   4 O :   -0.498422
   5 H :    0.155929
   6 H :    0.152935
   7 H :    0.150055
   8 H :    0.144484
   9 H :    0.156972
  10 H :    0.154140
  11 H :    0.144169
  12 C :   -0.044569
  13 H :    0.137854
  14 H :    0.146799
  15 O :   -0.513445
  16 C :    0.070789
  17 C :    0.086316
  18 C :   -0.316324
  19 C :   -0.033120
  20 O :   -0.521566
  21 H :    0.166693
  22 O :   -0.596314
  23 H :    0.185316
  24 H :    0.165505
  25 H :    0.151868
  26 H :    0.148052
  27 H :    0.146948
  28 H :    0.345182
Sum of atomic charges:    0.0000000

--------------------------------
MULLIKEN REDUCED ORBITAL CHARGES
--------------------------------
  0 C s       :     3.226581  s :     3.226581
      pz      :     0.797765  p :     2.470464
      px      :     0.690207
      py      :     0.982492
  1 C s       :     3.310787  s :     3.310787
      pz      :     0.985038  p :     2.978415
      px      :     1.047649
      py      :     0.945728
  2 C s       :     3.315246  s :     3.315246
      pz      :     0.906371  p :     2.983645
      px      :     1.083144
      py      :     0.994130
  3 C s       :     3.261288  s :     3.261288
      pz      :     0.941559  p :     2.739817
      px      :     1.057926
      py      :     0.740332
  4 O s       :     3.947730  s :     3.947730
      pz      :     1.317910  p :     4.550692
      px      :     1.715031
      py      :     1.517750
  5 H s       :     0.844071  s :     0.844071
  6 H s       :     0.847065  s :     0.847065
  7 H s       :     0.849945  s :     0.849945
  8 H s       :     0.855516  s :     0.855516
  9 H s       :     0.843028  s :     0.843028
 10 H s       :     0.845860  s :     0.845860
 11 H s       :     0.855831  s :     0.855831
 12 C s       :     3.298400  s :     3.298400
      pz      :     0.836847  p :     2.746169
      px      :     0.955697
      py      :     0.953625
 13 H s       :     0.862146  s :     0.862146
 14 H s       :     0.853201  s :     0.853201
 15 O s       :     3.949936  s :     3.949936
      pz      :     1.542151  p :     4.563509
      px      :     1.289619
      py      :     1.731739
 16 C s       :     3.275374  s :     3.275374
      pz      :     0.810960  p :     2.653837
      px      :     0.890734
      py      :     0.952142
 17 C s       :     3.297829  s :     3.297829
      pz      :     1.018115  p :     2.615855
      px      :     0.844933
      py      :     0.752807
 18 C s       :     3.319488  s :     3.319488
      pz      :     0.949557  p :     2.996836
      px      :     1.084319
      py      :     0.962960
 19 C s       :     3.268142  s :     3.268142
      pz      :     0.938267  p :     2.764978
      px      :     0.826546
      py      :     1.000164
 20 O s       :     3.945428  s :     3.945428
      pz      :     1.540135  p :     4.576138
      px      :     1.440410
      py      :     1.595593
 21 H s       :     0.833307  s :     0.833307
 22 O s       :     3.952475  s :     3.952475
      pz      :     1.358660  p :     4.643839
      px      :     1.727712
      py      :     1.557468
 23 H s       :     0.814684  s :     0.814684
 24 H s       :     0.834495  s :     0.834495
 25 H s       :     0.848132  s :     0.848132
 26 H s       :     0.851948  s :     0.851948
 27 H s       :     0.853052  s :     0.853052
 28 H s       :     0.654818  s :     0.654818


                     *******************************
                     * LOEWDIN POPULATION ANALYSIS *
                     *******************************

----------------------
LOEWDIN ATOMIC CHARGES
----------------------
   0 C :    0.192420
   1 C :   -0.231897
   2 C :   -0.216727
   3 C :   -0.027625
   4 O :   -0.298284
   5 H :    0.106573
   6 H :    0.118468
   7 H :    0.117447
   8 H :    0.115048
   9 H :    0.115600
  10 H :    0.109150
  11 H :    0.103424
  12 C :   -0.052456
  13 H :    0.102479
  14 H :    0.108206
  15 O :   -0.368973
  16 C :    0.021127
  17 C :    0.045937
  18 C :   -0.240517
  19 C :   -0.041274
  20 O :   -0.326281
  21 H :    0.121551
  22 O :   -0.441994
  23 H :    0.136083
  24 H :    0.128634
  25 H :    0.115278
  26 H :    0.103630
  27 H :    0.102299
  28 H :    0.282677

-------------------------------
LOEWDIN REDUCED ORBITAL CHARGES
-------------------------------
  0 C s       :     2.978650  s :     2.978650
      pz      :     0.917275  p :     2.828930
      px      :     0.831264
      py      :     1.080391
  1 C s       :     2.979055  s :     2.979055
      pz      :     1.077890  p :     3.252842
      px      :     1.111160
      py      :     1.063792
  2 C s       :     2.973009  s :     2.973009
      pz      :     1.031271  p :     3.243718
      px      :     1.131334
      py      :     1.081113
  3 C s       :     2.983861  s :     2.983861
      pz      :     1.039604  p :     3.043764
      px      :     1.119965
      py      :     0.884194
  4 O s       :     3.607816  s :     3.607816
      pz      :     1.378892  p :     4.690468
      px      :     1.747256
      py      :     1.564321
  5 H s       :     0.893427  s :     0.893427
  6 H s       :     0.881532  s :     0.881532
  7 H s       :     0.882553  s :     0.882553
  8 H s       :     0.884952  s :     0.884952
  9 H s       :     0.884400  s :     0.884400
 10 H s       :     0.890850  s :     0.890850
 11 H s       :     0.896576  s :     0.896576
 12 C s       :     3.007724  s :     3.007724
      pz      :     0.955080  p :     3.044733
      px      :     1.050011
      py      :     1.039643
 13 H s       :     0.897521  s :     0.897521
 14 H s       :     0.891794  s :     0.891794
 15 O s       :     3.662818  s :     3.662818
      pz      :     1.588678  p :     4.706155
      px      :     1.348456
      py      :     1.769021
 16 C s       :     2.969684  s :     2.969684
      pz      :     0.942389  p :     3.009189
      px      :     1.034498
      py      :     1.032302
 17 C s       :     2.976254  s :     2.976254
      pz      :     1.079097  p :     2.977810
      px      :     0.979923
      py      :     0.918789
 18 C s       :     2.982286  s :     2.982286
      pz      :     1.065462  p :     3.258231
      px      :     1.122505
      py      :     1.070264
 19 C s       :     2.983657  s :     2.983657
      pz      :     1.050327  p :     3.057617
      px      :     0.936398
      py      :     1.070891
 20 O s       :     3.602899  s :     3.602899
      pz      :     1.593238  p :     4.723382
      px      :     1.492951
      py      :     1.637193
 21 H s       :     0.878449  s :     0.878449
 22 O s       :     3.695000  s :     3.695000
      pz      :     1.399954  p :     4.746995
      px      :     1.748651
      py      :     1.598390
 23 H s       :     0.863917  s :     0.863917
 24 H s       :     0.871366  s :     0.871366
 25 H s       :     0.884722  s :     0.884722
 26 H s       :     0.896370  s :     0.896370
 27 H s       :     0.897701  s :     0.897701
 28 H s       :     0.717323  s :     0.717323


                      *****************************
                      * MAYER POPULATION ANALYSIS *
                      *****************************

  NA   - Mulliken gross atomic population
  ZA   - Total nuclear charge
  QA   - Mulliken gross atomic charge
  VA   - Mayer's total valence
  BVA  - Mayer's bonded valence
  FA   - Mayer's free valence

  ATOM       NA         ZA         QA         VA         BVA        FA
  0 C      5.6970     6.0000     0.3030     3.6529     3.6529     0.0000
  1 C      6.2892     6.0000    -0.2892     3.7148     3.7148     0.0000
  2 C      6.2989     6.0000    -0.2989     3.7624     3.7624     0.0000
  3 C      6.0011     6.0000    -0.0011     3.6547     3.6547    -0.0000
  4 O      8.4984     8.0000    -0.4984     1.8301     1.8301    -0.0000
  5 H      0.8441     1.0000     0.1559     0.9253     0.9253     0.0000
  6 H      0.8471     1.0000     0.1529     0.9314     0.9314    -0.0000
  7 H      0.8499     1.0000     0.1501     0.9403     0.9403     0.0000
  8 H      0.8555     1.0000     0.1445     0.9364     0.9364     0.0000
  9 H      0.8430     1.0000     0.1570     0.9345     0.9345     0.0000
 10 H      0.8459     1.0000     0.1541     0.9252     0.9252     0.0000
 11 H      0.8558     1.0000     0.1442     0.9281     0.9281    -0.0000
 12 C      6.0446     6.0000    -0.0446     3.6345     3.6345    -0.0000
 13 H      0.8621     1.0000     0.1379     0.9345     0.9345     0.0000
 14 H      0.8532     1.0000     0.1468     0.9348     0.9348    -0.0000
 15 O      8.5134     8.0000    -0.5134     1.7735     1.7735     0.0000
 16 C      5.9292     6.0000     0.0708     3.5732     3.5732    -0.0000
 17 C      5.9137     6.0000     0.0863     3.6269     3.6269     0.0000
 18 C      6.3163     6.0000    -0.3163     3.7067     3.7067    -0.0000
 19 C      6.0331     6.0000    -0.0331     3.6604     3.6604     0.0000
 20 O      8.5216     8.0000    -0.5216     1.7648     1.7648     0.0000
 21 H      0.8333     1.0000     0.1667     0.9361     0.9361     0.0000
 22 O      8.5963     8.0000    -0.5963     1.7603     1.7603     0.0000
 23 H      0.8147     1.0000     0.1853     0.9369     0.9369     0.0000
 24 H      0.8345     1.0000     0.1655     0.9392     0.9392    -0.0000
 25 H      0.8481     1.0000     0.1519     0.9329     0.9329     0.0000
 26 H      0.8519     1.0000     0.1481     0.9267     0.9267     0.0000
 27 H      0.8531     1.0000     0.1469     0.9292     0.9292    -0.0000
 28 H      0.6548     1.0000     0.3452     0.8506     0.8506    -0.0000

  Mayer bond orders larger than 0.100000
B(  0-C ,  1-C ) :   0.9281 B(  0-C ,  4-O ) :   0.9391 B(  0-C ,  5-H ) :   0.9225 
B(  0-C , 15-O ) :   0.8237 B(  1-C ,  2-C ) :   0.9516 B(  1-C ,  6-H ) :   0.9323 
B(  1-C ,  7-H ) :   0.9235 B(  2-C ,  3-C ) :   0.9550 B(  2-C ,  8-H ) :   0.9446 
B(  2-C ,  9-H ) :   0.9458 B(  3-C ,  4-O ) :   0.8357 B(  3-C , 10-H ) :   0.9335 
B(  3-C , 11-H ) :   0.9383 B( 12-C , 13-H ) :   0.9266 B( 12-C , 14-H ) :   0.9099 
B( 12-C , 15-O ) :   0.8587 B( 12-C , 16-C ) :   0.8687 B( 16-C , 17-C ) :   0.9103 
B( 16-C , 20-O ) :   0.8432 B( 16-C , 21-H ) :   0.9296 B( 17-C , 18-C ) :   0.9179 
B( 17-C , 22-O ) :   0.8854 B( 17-C , 23-H ) :   0.9214 B( 18-C , 19-C ) :   0.9395 
B( 18-C , 24-H ) :   0.9369 B( 18-C , 25-H ) :   0.9295 B( 19-C , 20-O ) :   0.8438 
B( 19-C , 26-H ) :   0.9347 B( 19-C , 27-H ) :   0.9371 B( 22-O , 28-H ) :   0.8122 


-------
TIMINGS
-------

Total SCF time: 0 days 0 hours 19 min 35 sec 

Total time                  ....    1175.776 sec
Sum of individual times     ....    1021.334 sec  ( 86.9%)

Fock matrix formation       ....     942.973 sec  ( 80.2%)
  XC integration            ....     658.824 sec  ( 69.9% of F)
    Basis function eval.    ....       3.105 sec  (  0.5% of XC)
    Density eval.           ....       4.940 sec  (  0.7% of XC)
    XC-Functional eval.     ....       3.046 sec  (  0.5% of XC)
    XC-Potential eval.      ....       1.229 sec  (  0.2% of XC)
Diagonalization             ....       3.210 sec  (  0.3%)
Density matrix formation    ....       0.013 sec  (  0.0%)
Population analysis         ....      19.308 sec  (  1.6%)
Initial guess               ....      11.319 sec  (  1.0%)
Orbital Transformation      ....       0.000 sec  (  0.0%)
Orbital Orthonormalization  ....       0.000 sec  (  0.0%)
DIIS solution               ....      17.051 sec  (  1.5%)
SOSCF solution              ....       4.337 sec  (  0.4%)
Grid generation             ....      23.123 sec  (  2.0%)

-------------------------   --------------------
FINAL SINGLE POINT ENERGY      -652.831613923059
-------------------------   --------------------

------------------------------------------------------------------------------
                         ORCA SCF GRADIENT CALCULATION
------------------------------------------------------------------------------

Gradient of the Kohn-Sham DFT energy:
Kohn-Sham wavefunction type      ... RKS
Hartree-Fock exchange scaling    ...    0.200
Number of operators              ...    1
Number of atoms                  ...   29
Basis set dimensions             ...  149
Integral neglect threshold       ... 2.5e-11
Integral primitive cutoff        ... 2.5e-12

Nuclear repulsion gradient       ... done
One Electron Gradient            ... done
Pre-screening matrix             ... done
Starting the two electron gradient:
Two electron gradient done
Exchange-correlation gradient    ... done

------------------
CARTESIAN GRADIENT
------------------

   1   C   :    0.008435771   -0.001776122   -0.004773643
   2   C   :    0.004324630   -0.002991938   -0.004879492
   3   C   :   -0.000468335   -0.000170570   -0.001943011
   4   C   :    0.001116740   -0.005908134   -0.003919792
   5   O   :    0.019234911   -0.007112501    0.021708256
   6   H   :    0.004488103    0.002323198   -0.002308478
   7   H   :    0.000394185    0.002013622    0.000363387
   8   H   :   -0.004476234    0.000545763   -0.002180557
   9   H   :   -0.000592192    0.000669942    0.000258205
  10   H   :   -0.000680513    0.001467728    0.000416448
  11   H   :   -0.000454649    0.000990957    0.001603830
  12   H   :   -0.000269883    0.001284425    0.000858741
  13   C   :   -0.010836460    0.011770189   -0.005505300
  14   H   :   -0.006278544    0.001978902   -0.005795495
  15   H   :    0.002723259    0.001873936   -0.002527949
  16   O   :   -0.009687466   -0.013147330    0.023703098
  17   C   :   -0.010404990    0.007948362   -0.015353220
  18   C   :    0.019579108    0.013547135    0.021986505
  19   C   :    0.000830753    0.002141606    0.004393416
  20   C   :    0.002900216   -0.002640907   -0.002296177
  21   O   :   -0.004053811   -0.002828859   -0.002517177
  22   H   :    0.004163957    0.002248870   -0.001208855
  23   O   :    0.001835951   -0.036444861    0.038539487
  24   H   :    0.003837736    0.008391408    0.005890283
  25   H   :   -0.001487380    0.002608797   -0.000404684
  26   H   :    0.000738995    0.000587982   -0.000791367
  27   H   :    0.000273920   -0.000521158    0.000756151
  28   H   :    0.000431547   -0.000386184    0.000696908
  29   H   :   -0.025619323    0.011535742   -0.064769518

Difference to translation invariance:
           :   -0.0000000000   -0.0000000000   -0.0000000001

Norm of the cartesian gradient     ...    0.1089318258
RMS gradient                       ...    0.0116787176
MAX gradient                       ...    0.0647695180

-------
TIMINGS
-------

Total SCF gradient time            ...      121.232 sec

One electron gradient       ....       0.301 sec  (  0.2%)
Prescreening matrices       ....       0.050 sec  (  0.0%)
Two electron gradient       ....      13.694 sec  ( 11.3%)
XC gradient                 ....       8.877 sec  (  7.3%)
------------------------------------------------------------------------------
                         ORCA GEOMETRY RELAXATION STEP
------------------------------------------------------------------------------

Reading the OPT-File                    .... done
Getting information on internals        .... done
Copying old internal coords+grads       .... done
Making the new internal coordinates     .... (new redundants).... done
Validating the new internal coordinates .... (new redundants).... done
Calculating the B-matrix                .... done
Calculating the G,G- and P matrices     .... done
Transforming gradient to internals      .... done
Projecting the internal gradient        .... done
Number of atoms                         ....  29
Number of internal coordinates          .... 172
Current Energy                          ....  -652.831613923 Eh
Current gradient norm                   ....     0.108931826 Eh/bohr
Maximum allowed component of the step   ....  0.300
Current trust radius                    ....  0.300
Evaluating the initial hessian          ....  (Almloef) done
Projecting the Hessian                  .... done
Forming the augmented Hessian           .... done
Diagonalizing the augmented Hessian     .... done
Last element of RFO vector              ....  0.944696844
Lowest eigenvalues of augmented Hessian:
 -0.036336124  0.007840771  0.032960734  0.033136738  0.036547403
Length of the computed step             ....  0.347143028
Warning: the length of the step is outside the trust region - taking restricted step instead
The input lambda is                     ....    -0.036336
   iter:   1  x=   -0.066370  g=    1.015809 f(x)=     0.030508
   iter:   2  x=   -0.076804  g=    0.635859 f(x)=     0.006635
   iter:   3  x=   -0.077513  g=    0.562234 f(x)=     0.000398
   iter:   4  x=   -0.077515  g=    0.557788 f(x)=     0.000002
   iter:   5  x=   -0.077515  g=    0.557771 f(x)=     0.000000
   iter:   6  x=   -0.077515  g=    0.557771 f(x)=    -0.000000
The output lambda is                    ....    -0.077515 (6 iterations)
The final length of the internal step   ....  0.300000000
Converting the step to cartesian space:
 Initial RMS(Int)=    0.0228747855
Transforming coordinates:
 Iter   0:  RMS(Cart)=    0.1033618920 RMS(Int)=    0.6768904071
 Iter   1:  RMS(Cart)=    0.0037706810 RMS(Int)=    0.4790202664
 Iter   2:  RMS(Cart)=    0.0002321097 RMS(Int)=    0.0000575242
 Iter   3:  RMS(Cart)=    0.0000190440 RMS(Int)=    0.0000096316
 Iter   4:  RMS(Cart)=    0.0000012993 RMS(Int)=    0.0000003493
 Iter   5:  RMS(Cart)=    0.0000000985 RMS(Int)=    0.0000000526
Imposing constraints:
[...]
  29   2.0000      -0.493186       -13.4203 
  30   2.0000      -0.472286       -12.8516 
  31   2.0000      -0.458537       -12.4774 
  32   2.0000      -0.454490       -12.3673 
  33   2.0000      -0.439154       -11.9500 
  34   2.0000      -0.426786       -11.6134 
  35   2.0000      -0.410405       -11.1677 
  36   2.0000      -0.407564       -11.0904 
  37   2.0000      -0.391252       -10.6465 
  38   2.0000      -0.380661       -10.3583 
  39   2.0000      -0.367323        -9.9954 
  40   2.0000      -0.361550        -9.8383 
  41   2.0000      -0.359034        -9.7698 
  42   2.0000      -0.355314        -9.6686 
  43   2.0000      -0.330863        -9.0032 
  44   2.0000      -0.316244        -8.6054 
  45   2.0000      -0.307346        -8.3633 
  46   2.0000      -0.298389        -8.1196 
  47   2.0000      -0.274544        -7.4707 
  48   2.0000      -0.262446        -7.1415 
  49   2.0000      -0.259155        -7.0520 
  50   2.0000      -0.240369        -6.5408 
  51   0.0000       0.065039         1.7698 
  52   0.0000       0.071682         1.9506 
  53   0.0000       0.095863         2.6086 
  54   0.0000       0.100205         2.7267 
  55   0.0000       0.103892         2.8270 
  56   0.0000       0.106449         2.8966 
  57   0.0000       0.117365         3.1937 
  58   0.0000       0.124943         3.3999 
  59   0.0000       0.128263         3.4902 
  60   0.0000       0.140133         3.8132 
  61   0.0000       0.145456         3.9581 
  62   0.0000       0.152011         4.1364 
  63   0.0000       0.155948         4.2436 
  64   0.0000       0.158916         4.3243 
  65   0.0000       0.163569         4.4509 
  66   0.0000       0.180603         4.9145 
  67   0.0000       0.183742         4.9999 
  68   0.0000       0.194705         5.2982 
  69   0.0000       0.205403         5.5893 
  70   0.0000       0.218137         5.9358 
  71   0.0000       0.220475         5.9994 
  72   0.0000       0.228802         6.2260 
  73   0.0000       0.233936         6.3657 
  74   0.0000       0.249974         6.8021 
  75   0.0000       0.256427         6.9777 
  76   0.0000       0.265387         7.2215 
  77   0.0000       0.277763         7.5583 
  78   0.0000       0.289632         7.8813 
  79   0.0000       0.306267         8.3339 
  80   0.0000       0.312622         8.5069 
  81   0.0000       0.524295        14.2668 
  82   0.0000       0.532338        14.4857 
  83   0.0000       0.543610        14.7924 
  84   0.0000       0.548129        14.9153 
  85   0.0000       0.551067        14.9953 
  86   0.0000       0.558993        15.2110 
  87   0.0000       0.565855        15.3977 
  88   0.0000       0.586162        15.9503 
  89   0.0000       0.592008        16.1094 
  90   0.0000       0.593684        16.1550 
  91   0.0000       0.605108        16.4658 
  92   0.0000       0.626534        17.0488 
  93   0.0000       0.630462        17.1557 
  94   0.0000       0.644407        17.5352 
  95   0.0000       0.644997        17.5512 
  96   0.0000       0.660667        17.9777 
  97   0.0000       0.677485        18.4353 
  98   0.0000       0.688307        18.7298 
  99   0.0000       0.711466        19.3600 
 100   0.0000       0.731609        19.9081 
 101   0.0000       0.767930        20.8964 
 102   0.0000       0.782239        21.2858 
 103   0.0000       0.813580        22.1387 
 104   0.0000       0.832460        22.6524 
 105   0.0000       0.837828        22.7984 
 106   0.0000       0.846311        23.0293 
 107   0.0000       0.858286        23.3551 
 108   0.0000       0.867628        23.6094 
 109   0.0000       0.874749        23.8031 
 110   0.0000       0.883873        24.0514 
 111   0.0000       0.891364        24.2552 
 112   0.0000       0.898116        24.4390 
 113   0.0000       0.911888        24.8137 
 114   0.0000       0.920016        25.0349 
 115   0.0000       0.928274        25.2596 
 116   0.0000       0.936056        25.4714 
 117   0.0000       0.945375        25.7250 
 118   0.0000       0.950160        25.8552 
 119   0.0000       0.956313        26.0226 
 120   0.0000       0.963553        26.2196 
 121   0.0000       0.968914        26.3655 
 122   0.0000       0.993991        27.0479 
 123   0.0000       1.008833        27.4517 
 124   0.0000       1.026898        27.9433 
 125   0.0000       1.054029        28.6816 
 126   0.0000       1.070576        29.1318 
 127   0.0000       1.106290        30.1037 
 128   0.0000       1.128586        30.7104 
 129   0.0000       1.177503        32.0415 
 130   0.0000       1.199907        32.6511 
 131   0.0000       1.225723        33.3536 
 132   0.0000       1.258529        34.2463 
 133   0.0000       1.271174        34.5904 
 134   0.0000       1.318583        35.8805 
 135   0.0000       1.329329        36.1729 
 136   0.0000       1.389382        37.8070 
 137   0.0000       1.404694        38.2237 
 138   0.0000       1.446939        39.3732 
 139   0.0000       1.472860        40.0785 
 140   0.0000       1.533257        41.7221 
 141   0.0000       1.618563        44.0433 
 142   0.0000       1.626327        44.2546 
 143   0.0000       1.675731        45.5990 
 144   0.0000       1.771911        48.2161 
 145   0.0000       1.878237        51.1094 
 146   0.0000       1.920042        52.2470 
 147   0.0000       2.051404        55.8216 
 148   0.0000       2.117478        57.6195 

                    ********************************
                    * MULLIKEN POPULATION ANALYSIS *
                    ********************************

-----------------------
MULLIKEN ATOMIC CHARGES
-----------------------
   0 C :    0.309584
   1 C :   -0.287691
   2 C :   -0.299290
   3 C :   -0.000292
   4 O :   -0.497116
   5 H :    0.149226
   6 H :    0.152006
   7 H :    0.146451
   8 H :    0.144592
   9 H :    0.155484
  10 H :    0.154530
  11 H :    0.143995
  12 C :   -0.022918
  13 H :    0.136199
  14 H :    0.144017
  15 O :   -0.521424
  16 C :    0.064460
  17 C :    0.095536
  18 C :   -0.304785
  19 C :   -0.036481
  20 O :   -0.528540
  21 H :    0.157951
  22 O :   -0.602912
  23 H :    0.182051
  24 H :    0.162300
  25 H :    0.147771
  26 H :    0.147007
  27 H :    0.147746
  28 H :    0.360541
Sum of atomic charges:    0.0000000

--------------------------------
MULLIKEN REDUCED ORBITAL CHARGES
--------------------------------
  0 C s       :     3.195929  s :     3.195929
      pz      :     0.804567  p :     2.494487
      px      :     0.700250
      py      :     0.989670
  1 C s       :     3.310421  s :     3.310421
      pz      :     0.986627  p :     2.977270
      px      :     1.029297
      py      :     0.961346
  2 C s       :     3.315574  s :     3.315574
      pz      :     0.908314  p :     2.983716
      px      :     1.081983
      py      :     0.993419
  3 C s       :     3.262118  s :     3.262118
      pz      :     0.923545  p :     2.738174
      px      :     1.056121
      py      :     0.758507
  4 O s       :     3.936792  s :     3.936792
      pz      :     1.253373  p :     4.560324
      px      :     1.772368
      py      :     1.534582
  5 H s       :     0.850774  s :     0.850774
  6 H s       :     0.847994  s :     0.847994
  7 H s       :     0.853549  s :     0.853549
  8 H s       :     0.855408  s :     0.855408
  9 H s       :     0.844516  s :     0.844516
 10 H s       :     0.845470  s :     0.845470
 11 H s       :     0.856005  s :     0.856005
 12 C s       :     3.268382  s :     3.268382
      pz      :     0.855817  p :     2.754536
      px      :     0.949123
      py      :     0.949596
 13 H s       :     0.863801  s :     0.863801
 14 H s       :     0.855983  s :     0.855983
 15 O s       :     3.921811  s :     3.921811
      pz      :     1.576422  p :     4.599613
      px      :     1.319209
      py      :     1.703983
 16 C s       :     3.268403  s :     3.268403
      pz      :     0.821375  p :     2.667137
      px      :     0.883481
      py      :     0.962281
 17 C s       :     3.259601  s :     3.259601
      pz      :     1.031227  p :     2.644863
      px      :     0.860818
      py      :     0.752818
 18 C s       :     3.315311  s :     3.315311
      pz      :     0.945700  p :     2.989474
      px      :     1.070093
      py      :     0.973681
 19 C s       :     3.270979  s :     3.270979
      pz      :     0.936519  p :     2.765501
      px      :     0.812143
      py      :     1.016839
 20 O s       :     3.946111  s :     3.946111
      pz      :     1.549073  p :     4.582429
      px      :     1.405301
      py      :     1.628055
 21 H s       :     0.842049  s :     0.842049
 22 O s       :     3.921277  s :     3.921277
      pz      :     1.331792  p :     4.681635
      px      :     1.781503
      py      :     1.568340
 23 H s       :     0.817949  s :     0.817949
 24 H s       :     0.837700  s :     0.837700
 25 H s       :     0.852229  s :     0.852229
 26 H s       :     0.852993  s :     0.852993
 27 H s       :     0.852254  s :     0.852254
 28 H s       :     0.639459  s :     0.639459


                     *******************************
                     * LOEWDIN POPULATION ANALYSIS *
                     *******************************

----------------------
LOEWDIN ATOMIC CHARGES
----------------------
   0 C :    0.185133
   1 C :   -0.233756
   2 C :   -0.216605
   3 C :   -0.025375
   4 O :   -0.300992
   5 H :    0.100806
   6 H :    0.118800
   7 H :    0.114840
   8 H :    0.115590
   9 H :    0.114639
  10 H :    0.109660
  11 H :    0.103784
  12 C :   -0.043751
  13 H :    0.099460
  14 H :    0.104711
  15 O :   -0.341384
  16 C :    0.012190
  17 C :    0.039664
  18 C :   -0.242817
  19 C :   -0.040529
  20 O :   -0.334180
  21 H :    0.114882
  22 O :   -0.414184
  23 H :    0.131169
  24 H :    0.126905
  25 H :    0.114618
  26 H :    0.103481
  27 H :    0.102969
  28 H :    0.280273

-------------------------------
LOEWDIN REDUCED ORBITAL CHARGES
-------------------------------
  0 C s       :     2.953484  s :     2.953484
      pz      :     0.927919  p :     2.861382
      px      :     0.858560
      py      :     1.074904
  1 C s       :     2.979972  s :     2.979972
      pz      :     1.076564  p :     3.253784
      px      :     1.105974
      py      :     1.071246
  2 C s       :     2.971509  s :     2.971509
      pz      :     1.032056  p :     3.245097
      px      :     1.130475
      py      :     1.082567
  3 C s       :     2.983613  s :     2.983613
      pz      :     1.027245  p :     3.041761
      px      :     1.116339
      py      :     0.898177
  4 O s       :     3.593429  s :     3.593429
      pz      :     1.326423  p :     4.707563
      px      :     1.799845
      py      :     1.581295
  5 H s       :     0.899194  s :     0.899194
  6 H s       :     0.881200  s :     0.881200
  7 H s       :     0.885160  s :     0.885160
  8 H s       :     0.884410  s :     0.884410
  9 H s       :     0.885361  s :     0.885361
 10 H s       :     0.890340  s :     0.890340
 11 H s       :     0.896216  s :     0.896216
 12 C s       :     2.981248  s :     2.981248
      pz      :     0.974888  p :     3.062503
      px      :     1.044321
      py      :     1.043294
 13 H s       :     0.900540  s :     0.900540
 14 H s       :     0.895289  s :     0.895289
 15 O s       :     3.589470  s :     3.589470
      pz      :     1.625023  p :     4.751914
      px      :     1.380541
      py      :     1.746351
 16 C s       :     2.969731  s :     2.969731
      pz      :     0.948446  p :     3.018079
      px      :     1.029204
      py      :     1.040429
 17 C s       :     2.952827  s :     2.952827
      pz      :     1.088495  p :     3.007508
      px      :     0.995732
      py      :     0.923282
 18 C s       :     2.983578  s :     2.983578
      pz      :     1.063727  p :     3.259239
      px      :     1.117918
      py      :     1.077594
 19 C s       :     2.985464  s :     2.985464
      pz      :     1.047236  p :     3.055065
      px      :     0.924268
      py      :     1.083561
 20 O s       :     3.605179  s :     3.605179
      pz      :     1.599902  p :     4.729001
      px      :     1.460449
      py      :     1.668651
 21 H s       :     0.885118  s :     0.885118
 22 O s       :     3.614420  s :     3.614420
      pz      :     1.383309  p :     4.799764
      px      :     1.799762
      py      :     1.616693
 23 H s       :     0.868831  s :     0.868831
 24 H s       :     0.873095  s :     0.873095
 25 H s       :     0.885382  s :     0.885382
 26 H s       :     0.896519  s :     0.896519
 27 H s       :     0.897031  s :     0.897031
 28 H s       :     0.719727  s :     0.719727


                      *****************************
                      * MAYER POPULATION ANALYSIS *
                      *****************************

  NA   - Mulliken gross atomic population
  ZA   - Total nuclear charge
  QA   - Mulliken gross atomic charge
  VA   - Mayer's total valence
  BVA  - Mayer's bonded valence
  FA   - Mayer's free valence

  ATOM       NA         ZA         QA         VA         BVA        FA
  0 C      5.6904     6.0000     0.3096     3.6710     3.6710    -0.0000
  1 C      6.2877     6.0000    -0.2877     3.7127     3.7127     0.0000
  2 C      6.2993     6.0000    -0.2993     3.7642     3.7642     0.0000
  3 C      6.0003     6.0000    -0.0003     3.6594     3.6594     0.0000
  4 O      8.4971     8.0000    -0.4971     1.8063     1.8063     0.0000
  5 H      0.8508     1.0000     0.1492     0.9274     0.9274     0.0000
  6 H      0.8480     1.0000     0.1520     0.9323     0.9323     0.0000
  7 H      0.8535     1.0000     0.1465     0.9402     0.9402     0.0000
  8 H      0.8554     1.0000     0.1446     0.9366     0.9366     0.0000
  9 H      0.8445     1.0000     0.1555     0.9338     0.9338     0.0000
 10 H      0.8455     1.0000     0.1545     0.9257     0.9257     0.0000
 11 H      0.8560     1.0000     0.1440     0.9288     0.9288     0.0000
 12 C      6.0229     6.0000    -0.0229     3.6253     3.6253     0.0000
 13 H      0.8638     1.0000     0.1362     0.9347     0.9347    -0.0000
 14 H      0.8560     1.0000     0.1440     0.9358     0.9358    -0.0000
 15 O      8.5214     8.0000    -0.5214     1.7269     1.7269     0.0000
 16 C      5.9355     6.0000     0.0645     3.5911     3.5911     0.0000
 17 C      5.9045     6.0000     0.0955     3.6278     3.6278    -0.0000
 18 C      6.3048     6.0000    -0.3048     3.6977     3.6977    -0.0000
 19 C      6.0365     6.0000    -0.0365     3.6643     3.6643     0.0000
 20 O      8.5285     8.0000    -0.5285     1.7585     1.7585    -0.0000
 21 H      0.8420     1.0000     0.1580     0.9364     0.9364     0.0000
 22 O      8.6029     8.0000    -0.6029     1.7450     1.7450    -0.0000
 23 H      0.8179     1.0000     0.1821     0.9371     0.9371     0.0000
 24 H      0.8377     1.0000     0.1623     0.9398     0.9398     0.0000
 25 H      0.8522     1.0000     0.1478     0.9349     0.9349    -0.0000
 26 H      0.8530     1.0000     0.1470     0.9271     0.9271    -0.0000
 27 H      0.8523     1.0000     0.1477     0.9283     0.9283     0.0000
 28 H      0.6395     1.0000     0.3605     0.8344     0.8344    -0.0000

  Mayer bond orders larger than 0.100000
B(  0-C ,  1-C ) :   0.9312 B(  0-C ,  4-O ) :   0.9417 B(  0-C ,  5-H ) :   0.9229 
B(  0-C , 15-O ) :   0.8289 B(  1-C ,  2-C ) :   0.9484 B(  1-C ,  6-H ) :   0.9335 
B(  1-C ,  7-H ) :   0.9282 B(  2-C ,  3-C ) :   0.9555 B(  2-C ,  8-H ) :   0.9449 
B(  2-C ,  9-H ) :   0.9462 B(  3-C ,  4-O ) :   0.8348 B(  3-C , 10-H ) :   0.9345 
B(  3-C , 11-H ) :   0.9396 B( 12-C , 13-H ) :   0.9313 B( 12-C , 14-H ) :   0.9143 
B( 12-C , 15-O ) :   0.8360 B( 12-C , 16-C ) :   0.8860 B( 16-C , 17-C ) :   0.9147 
B( 16-C , 20-O ) :   0.8405 B( 16-C , 21-H ) :   0.9281 B( 17-C , 18-C ) :   0.9132 
B( 17-C , 22-O ) :   0.8896 B( 17-C , 23-H ) :   0.9226 B( 18-C , 19-C ) :   0.9419 
B( 18-C , 24-H ) :   0.9379 B( 18-C , 25-H ) :   0.9338 B( 19-C , 20-O ) :   0.8441 
B( 19-C , 26-H ) :   0.9353 B( 19-C , 27-H ) :   0.9375 B( 22-O , 28-H ) :   0.7972 


-------
TIMINGS
-------

Total SCF time: 0 days 0 hours 5 min 59 sec 

Total time                  ....     359.192 sec
Sum of individual times     ....     268.814 sec  ( 74.8%)

Fock matrix formation       ....     230.160 sec  ( 64.1%)
  XC integration            ....      67.936 sec  ( 29.5% of F)
    Basis function eval.    ....       1.403 sec  (  2.1% of XC)
    Density eval.           ....       1.248 sec  (  1.8% of XC)
    XC-Functional eval.     ....       0.835 sec  (  1.2% of XC)
    XC-Potential eval.      ....       0.570 sec  (  0.8% of XC)
Diagonalization             ....      12.423 sec  (  3.5%)
Density matrix formation    ....       0.004 sec  (  0.0%)
Population analysis         ....       1.504 sec  (  0.4%)
Initial guess               ....       0.022 sec  (  0.0%)
Orbital Transformation      ....       0.000 sec  (  0.0%)
Orbital Orthonormalization  ....       0.006 sec  (  0.0%)
DIIS solution               ....       0.003 sec  (  0.0%)
SOSCF solution              ....       1.776 sec  (  0.5%)
Grid generation             ....      22.923 sec  (  6.4%)

-------------------------   --------------------
FINAL SINGLE POINT ENERGY      -652.858620558117
-------------------------   --------------------

                                *** OPTIMIZATION RUN DONE ***

                            ***************************************
                            *     ORCA property calculations      *
                            ***************************************

                                    ---------------------
                                    Active property flags
                                    ---------------------
   (+) Dipole Moment


------------------------------------------------------------------------------
                       ORCA ELECTRIC PROPERTIES CALCULATION
------------------------------------------------------------------------------

Dipole Moment Calculation                       ... on
Quadrupole Moment Calculation                   ... off
Polarizability Calculation                      ... off
GBWName                                         ... project_8050/ensemble_165_120.gbw
Electron density file                           ... project_8050/ensemble_165_120.scfp
The origin for moment calculation is the CENTER OF MASS  = (-43.921441, 50.561898 86.333142)

-------------
DIPOLE MOMENT
-------------
                                X             Y             Z
Electronic contribution:     -1.62334      -5.51750      -1.42399
Nuclear contribution   :      2.08315       7.11298       1.23382
                        -----------------------------------------
Total Dipole Moment    :      0.45982       1.59548      -0.19017
                        -----------------------------------------
Magnitude (a.u.)       :      1.67127
Magnitude (Debye)      :      4.24804



--------------------
Rotational spectrum 
--------------------
 
Rotational constants in cm-1:     0.059419     0.011959     0.011275 
Rotational constants in MHz :  1781.339754   358.512455   338.005050 

 Dipole components along the rotational axes: 
x,y,z [a.u.] :    -0.438330     1.536761    -0.489277 
x,y,z [Debye]:    -1.114147     3.906135    -1.243643 

 

Timings for individual modules:

Sum of individual times         ...     4777.960 sec (=  79.633 min)
GTO integral calculation        ...      111.230 sec (=   1.854 min)   2.3 %
SCF iterations                  ...     4279.554 sec (=  71.326 min)  89.6 %
SCF Gradient evaluation         ...      323.527 sec (=   5.392 min)   6.8 %
Geometry relaxation             ...       63.648 sec (=   1.061 min)   1.3 %
                             ****ORCA TERMINATED NORMALLY****
TOTAL RUN TIME: 0 days 1 hours 24 minutes 17 seconds 600 msec
