
                                 *****************
                                 * O   R   C   A *
                                 *****************

           --- An Ab Initio, DFT and Semiempirical electronic structure package ---

                  #######################################################
                  #                        -***-                        #
                  #          Department of theory and spectroscopy      #
                  #               Directorship: Frank Neese             #
                  #        Max Planck Institute fuer Kohlenforschung    #
                  #                Kaiser Wilhelm Platz 1               #
                  #                 D-45470 Muelheim/Ruhr               #
                  #                      Germany                        #
                  #                                                     #
                  #                  All rights reserved                #
                  #                        -***-                        #
                  #######################################################


                         Program Version 4.2.0 -  RELEASE  -


 With contributions from (in alphabetic order):
   Daniel Aravena         : Magnetic Suceptibility
   Michael Atanasov       : Ab Initio Ligand Field Theory (pilot matlab implementation)
   Alexander A. Auer      : GIAO ZORA, VPT2
   Ute Becker             : Parallelization
   Giovanni Bistoni       : ED, misc. LED, open-shell LED, HFLED
   Martin Brehm           : Molecular dynamics
   Dmytro Bykov           : SCF Hessian
   Vijay G. Chilkuri      : MRCI spin determinant printing, contributions to CSF-ICE
   Dipayan Datta          : RHF DLPNO-CCSD density
   Achintya Kumar Dutta   : EOM-CC, STEOM-CC
   Dmitry Ganyushin       : Spin-Orbit,Spin-Spin,Magnetic field MRCI
   Miquel Garcia          : C-PCM Hessian, Gaussian charge scheme
   Yang Guo               : DLPNO-NEVPT2, CIM, IAO-localization
   Andreas Hansen         : Spin unrestricted coupled pair/coupled cluster methods
   Benjamin Helmich-Paris : CASSCF linear response (MC-RPA)
   Lee Huntington         : MR-EOM, pCC
   Robert Izsak           : Overlap fitted RIJCOSX, COSX-SCS-MP3, EOM
   Christian Kollmar      : KDIIS, OOCD, Brueckner-CCSD(T), CCSD density
   Simone Kossmann        : Meta GGA functionals, TD-DFT gradient, OOMP2, MP2 Hessian
   Martin Krupicka        : AUTO-CI
   Lucas Lang             : DCDCAS
   Dagmar Lenk            : GEPOL surface, SMD
   Dimitrios Liakos       : Extrapolation schemes; Compound Job, initial MDCI parallelization
   Dimitrios Manganas     : Further ROCIS development; embedding schemes
   Dimitrios Pantazis     : SARC Basis sets
   Taras Petrenko         : DFT Hessian,TD-DFT gradient, ASA, ECA, R-Raman, ABS, FL, XAS/XES, NRVS
   Peter Pinski           : DLPNO-MP2, DLPNO-MP2 Gradient
   Christoph Reimann      : Effective Core Potentials
   Marius Retegan         : Local ZFS, SOC
   Christoph Riplinger    : Optimizer, TS searches, QM/MM, DLPNO-CCSD(T), (RO)-DLPNO pert. Triples
   Tobias Risthaus        : Range-separated hybrids, TD-DFT gradient, RPA, STAB
   Michael Roemelt        : Original ROCIS implementation
   Masaaki Saitow         : Open-shell DLPNO-CCSD energy and density
   Barbara Sandhoefer     : DKH picture change effects
   Avijit Sen             : IP-ROCIS
   Kantharuban Sivalingam : CASSCF convergence, NEVPT2, FIC-MRCI
   Bernardo de Souza      : ESD, SOC TD-DFT
   Georgi Stoychev        : AutoAux, RI-MP2 NMR
   Willem Van den Heuvel  : Paramagnetic NMR
   Boris Wezisla          : Elementary symmetry handling
   Frank Wennmohs         : Technical directorship


 We gratefully acknowledge several colleagues who have allowed us to
 interface, adapt or use parts of their codes:
   Stefan Grimme, W. Hujo, H. Kruse,             : VdW corrections, initial TS optimization,
                  C. Bannwarth                     DFT functionals, gCP, sTDA/sTD-DF
   Ed Valeev, F. Pavosevic, A. Kumar             : LibInt (2-el integral package), F12 methods
   Garnet Chan, S. Sharma, J. Yang, R. Olivares  : DMRG
   Ulf Ekstrom                                   : XCFun DFT Library
   Mihaly Kallay                                 : mrcc  (arbitrary order and MRCC methods)
   Andreas Klamt, Michael Diedenhofen            : otool_cosmo (COSMO solvation model)
   Jiri Pittner, Ondrej Demel                    : Mk-CCSD
   Frank Weinhold                                : gennbo (NPA and NBO analysis)
   Christopher J. Cramer and Donald G. Truhlar   : smd solvation model
   Lars Goerigk                                  : TD-DFT with DH, B97 family of functionals
   V. Asgeirsson, H. Jonsson                     : NEB implementation
   FAccTs GmbH                                   : IRC, NEB, NEB-TS, Multilevel, MM, QM/MM, CI optimization
   S Lehtola, MJT Oliveira, MAL Marques          : LibXC Library


 Your calculation uses the libint2 library for the computation of 2-el integrals
 For citations please refer to: http://libint.valeyev.net

 Your ORCA version has been built with support for libXC version: 4.2.3
 For citations please refer to: https://tddft.org/programs/libxc/

 This ORCA versions uses:
   CBLAS   interface :  Fast vector & matrix operations
   LAPACKE interface :  Fast linear algebra routines
   SCALAPACK package :  Parallel linear algebra routines


----- Orbital basis set information -----
Your calculation utilizes the basis: 6-31G
   H-He, Li-Ne : W. J. Hehre, R. Ditchfield and J.A. Pople, J. Chem. Phys. 56, 2257 (1972).
                 Note: He and Ne are unpublished basis sets taken from the Gaussian program.
                 Note: Li and B from J. D. Dill and J. A. Pople, J. Chem. Phys. 62, 2921 (1975).
   Na - Ar     : M. M. Francl, W. J. Pietro, W. J. Hehre, J. S. Binkley, M. S. Gordon, 
                 D. J. DeFrees and J. A. Pople, J. Chem. Phys. 77, 3654 (1982).
   K - Zn      : V. A. Rassolov, J. A. Pople, M. A. Ratner, and T. L. Windus, J. Chem. Phys. 109, 1223 (1998).

================================================================================
                                        WARNINGS
                       Please study these warnings very carefully!
================================================================================


WARNING: Geometry Optimization
  ===> : Switching off AutoStart
         For restart on a previous wavefunction, please use MOREAD

INFO   : the flag for use of LIBINT has been found!

================================================================================
                                       INPUT FILE
================================================================================
NAME = project_8053/ensemble_285_195.inp
|  1> # Test redundant internal optimization
|  2> #
|  3> ! RKS B3LYP  Opt TightSCF SmallPrint
|  4> 
|  5> %basis
|  6>         Basis "6-31G"
|  7> end
|  8> 
|  9> %geom
| 10> Constraints
| 11> { D 4  0  15  12  285.0   C } # D for Dihedral angle
| 12> { D 0  15  12  16  195.0   C } # D for Dihedral angle
| 13> { D 0  4  3  2   C } # D for Dihedral angle
| 14> { D 4  3  2  1   C } # D for Dihedral angle
| 15> { D 3  2  1  0   C } # D for Dihedral angle
| 16> { D 2  1  0  4   C } # D for Dihedral angle
| 17> { D 1  0  4  3   C } # D for Dihedral angle
| 18> { D 16  20  19  18   C } # D for Dihedral angle
| 19> { D 20  19  18  17   C } # D for Dihedral angle
| 20> { D 19  18  17  16   C } # D for Dihedral angle
| 21> { D 18  17  16  20   C } # D for Dihedral angle
| 22> { D 17  16  20  19   C } # D for Dihedral angle
| 23> { D 15  12  16  20   C } # D for Dihedral angle
| 24> end
| 25> end
| 26> 
| 27> 
| 28> #%pal 
| 29> #nprocs 8
| 30> #end
| 31> 
| 32> * xyz 0 1
| 33> C  -21.048   26.222   46.251
| 34> C  -20.361   27.558   45.944
| 35> C  -20.329   28.222   47.341
| 36> C  -20.110   27.022   48.296
| 37> O  -20.473   25.807   47.535
| 38> H  -20.833   25.428   45.533
| 39> H  -19.344   27.382   45.576
| 40> H  -20.898   28.157   45.201
| 41> H  -19.543   28.978   47.434
| 42> H  -21.289   28.710   47.548
| 43> H  -20.733   27.082   49.195
| 44> H  -19.064   26.913   48.597
| 45> C  -23.396   25.070   46.435
| 46> H  -23.015   24.378   45.674
| 47> H  -23.282   24.595   47.418
| 48> O  -22.586   26.394   46.375
| 49> C  -24.915   25.283   46.186
| 50> C  -25.697   23.978   46.367
| 51> C  -25.806   23.888   47.908
| 52> C  -25.949   25.369   48.337
| 53> O  -25.479   26.185   47.196
| 54> H  -25.054   25.763   45.215
| 55> H  -26.691   24.068   45.914
| 56> O  -24.984   22.747   45.741
| 57> H  -26.650   23.274   48.239
| 58> H  -24.890   23.452   48.325
| 59> H  -25.348   25.610   49.221
| 60> H  -26.988   25.651   48.527
| 61> H  -23.987   22.636   46.180
| 62> *
| 63> 
| 64>                          ****END OF INPUT****
================================================================================

                       *****************************
                       * Geometry Optimization Run *
                       *****************************

Geometry optimization settings:
Update method            Update   .... BFGS
Choice of coordinates    CoordSys .... Z-matrix Internals
Initial Hessian          InHess   .... Almoef's Model

Convergence Tolerances:
Energy Change            TolE     ....  5.0000e-06 Eh
Max. Gradient            TolMAXG  ....  3.0000e-04 Eh/bohr
RMS Gradient             TolRMSG  ....  1.0000e-04 Eh/bohr
Max. Displacement        TolMAXD  ....  4.0000e-03 bohr
RMS Displacement         TolRMSD  ....  2.0000e-03 bohr
Strict Convergence                ....  False
------------------------------------------------------------------------------
                        ORCA OPTIMIZATION COORDINATE SETUP
------------------------------------------------------------------------------

The optimization will be done in new redundant internal coordinates
Making redundant internal coordinates   ...  (new redundants) done
Evaluating the initial hessian          ...  (Almloef) done
Evaluating the coordinates              ...  done
Calculating the B-matrix                .... done
Calculating the G-matrix                .... done
Diagonalizing the G-matrix              .... done
Imposing constraints:
 Iter   0:  RMS(Cart)=    0.0001670612 RMS(Int)=    0.0000544356
 Iter   1:  RMS(Cart)=    0.0000835508 RMS(Int)=    0.0000295534
 Iter   2:  RMS(Cart)=    0.0000437426 RMS(Int)=    0.0000175637
 Iter   3:  RMS(Cart)=    0.0000241624 RMS(Int)=    0.0000115047
 Iter   4:  RMS(Cart)=    0.0000141158 RMS(Int)=    0.0000082687
 Iter   5:  RMS(Cart)=    0.0000086955 RMS(Int)=    0.0000064633
 Iter   6:  RMS(Cart)=    0.0000056166 RMS(Int)=    0.0000054281
 Iter   7:  RMS(Cart)=    0.0000037857 RMS(Int)=    0.0000048185
 Iter   8:  RMS(Cart)=    0.0000026567 RMS(Int)=    0.0000044424
 Iter   9:  RMS(Cart)=    0.0000019421 RMS(Int)=    0.0000041924
 Iter  10:  RMS(Cart)=    0.0000014819 RMS(Int)=    0.0000040097
 Iter  11:  RMS(Cart)=    0.0000011818 RMS(Int)=    0.0000038633
 Iter  12:  RMS(Cart)=    0.0000009838 RMS(Int)=    0.0000037371
 Iter  13:  RMS(Cart)=    0.0000008511 RMS(Int)=    0.0000036228
 Iter  14:  RMS(Cart)=    0.0000007600 RMS(Int)=    0.0000035161
 Iter  15:  RMS(Cart)=    0.0000006954 RMS(Int)=    0.0000034148
 Iter  16:  RMS(Cart)=    0.0000006476 RMS(Int)=    0.0000033176
 Iter  17:  RMS(Cart)=    0.0000006109 RMS(Int)=    0.0000032241
 Iter  18:  RMS(Cart)=    0.0000005813 RMS(Int)=    0.0000031337
 Iter  19:  RMS(Cart)=    0.0000005566 RMS(Int)=    0.0000030462
 Iter  20:  RMS(Cart)=    0.0000005353 RMS(Int)=    0.0000029615
 Iter  21:  RMS(Cart)=    0.0000005163 RMS(Int)=    0.0000028795
 Iter  22:  RMS(Cart)=    0.0000004991 RMS(Int)=    0.0000028000
 Iter  23:  RMS(Cart)=    0.0000004833 RMS(Int)=    0.0000027230
 Iter  24:  RMS(Cart)=    0.0000004684 RMS(Int)=    0.0000026484
 Iter  25:  RMS(Cart)=    0.0000004544 RMS(Int)=    0.0000025760
 Iter  26:  RMS(Cart)=    0.0000004411 RMS(Int)=    0.0000025059
 Iter  27:  RMS(Cart)=    0.0000004284 RMS(Int)=    0.0000024379
 Iter  28:  RMS(Cart)=    0.0000004162 RMS(Int)=    0.0000023720
 Iter  29:  RMS(Cart)=    0.0000004044 RMS(Int)=    0.0000023081
 Iter  30:  RMS(Cart)=    0.0000003931 RMS(Int)=    0.0000022461
 Iter  31:  RMS(Cart)=    0.0000003821 RMS(Int)=    0.0000021860
 Iter  32:  RMS(Cart)=    0.0000003715 RMS(Int)=    0.0000021277
 Iter  33:  RMS(Cart)=    0.0000003613 RMS(Int)=    0.0000020712
 Iter  34:  RMS(Cart)=    0.0000003514 RMS(Int)=    0.0000020164
 Iter  35:  RMS(Cart)=    0.0000003417 RMS(Int)=    0.0000019632
 Iter  36:  RMS(Cart)=    0.0000003324 RMS(Int)=    0.0000019116
 Iter  37:  RMS(Cart)=    0.0000003234 RMS(Int)=    0.0000018615
 Iter  38:  RMS(Cart)=    0.0000003146 RMS(Int)=    0.0000018129
 Iter  39:  RMS(Cart)=    0.0000003061 RMS(Int)=    0.0000017658
 Iter  40:  RMS(Cart)=    0.0000002979 RMS(Int)=    0.0000017200
 Iter  41:  RMS(Cart)=    0.0000002899 RMS(Int)=    0.0000016756
 Iter  42:  RMS(Cart)=    0.0000002821 RMS(Int)=    0.0000016326
 Iter  43:  RMS(Cart)=    0.0000002746 RMS(Int)=    0.0000015908
 Iter  44:  RMS(Cart)=    0.0000002673 RMS(Int)=    0.0000015502
 Iter  45:  RMS(Cart)=    0.0000002602 RMS(Int)=    0.0000015108
 Iter  46:  RMS(Cart)=    0.0000002533 RMS(Int)=    0.0000014725
 Iter  47:  RMS(Cart)=    0.0000002466 RMS(Int)=    0.0000014354
 Iter  48:  RMS(Cart)=    0.0000002402 RMS(Int)=    0.0000013993
 Iter  49:  RMS(Cart)=    0.0000002339 RMS(Int)=    0.0000013643
 Iter  50:  RMS(Cart)=    0.0000002277 RMS(Int)=    0.0000013303
 Iter  51:  RMS(Cart)=    0.0000002218 RMS(Int)=    0.0000012973
 Iter  52:  RMS(Cart)=    0.0000002160 RMS(Int)=    0.0000012652
 Iter  53:  RMS(Cart)=    0.0000002104 RMS(Int)=    0.0000012341
 Iter  54:  RMS(Cart)=    0.0000002050 RMS(Int)=    0.0000012038
 Iter  55:  RMS(Cart)=    0.0000001997 RMS(Int)=    0.0000011744
 Iter  56:  RMS(Cart)=    0.0000001946 RMS(Int)=    0.0000011459
 Iter  57:  RMS(Cart)=    0.0000001896 RMS(Int)=    0.0000011182
 Iter  58:  RMS(Cart)=    0.0000001847 RMS(Int)=    0.0000010912
 Iter  59:  RMS(Cart)=    0.0000001800 RMS(Int)=    0.0000010650
 Iter  60:  RMS(Cart)=    0.0000001755 RMS(Int)=    0.0000010396
 Iter  61:  RMS(Cart)=    0.0000001710 RMS(Int)=    0.0000010149
 Iter  62:  RMS(Cart)=    0.0000001667 RMS(Int)=    0.0000009908
 Iter  63:  RMS(Cart)=    0.0000001625 RMS(Int)=    0.0000009675
 Iter  64:  RMS(Cart)=    0.0000001584 RMS(Int)=    0.0000009448
 Iter  65:  RMS(Cart)=    0.0000001544 RMS(Int)=    0.0000009227
 Iter  66:  RMS(Cart)=    0.0000001506 RMS(Int)=    0.0000009013
 Iter  67:  RMS(Cart)=    0.0000001468 RMS(Int)=    0.0000008804
 Iter  68:  RMS(Cart)=    0.0000001432 RMS(Int)=    0.0000008601
 Iter  69:  RMS(Cart)=    0.0000001396 RMS(Int)=    0.0000008404
 Iter  70:  RMS(Cart)=    0.0000001362 RMS(Int)=    0.0000008212
 Iter  71:  RMS(Cart)=    0.0000001328 RMS(Int)=    0.0000008026
 Iter  72:  RMS(Cart)=    0.0000001296 RMS(Int)=    0.0000007844
 Iter  73:  RMS(Cart)=    0.0000001264 RMS(Int)=    0.0000007668
 Iter  74:  RMS(Cart)=    0.0000001233 RMS(Int)=    0.0000007497
 Iter  75:  RMS(Cart)=    0.0000001203 RMS(Int)=    0.0000007330
 Iter  76:  RMS(Cart)=    0.0000001174 RMS(Int)=    0.0000007167
 Iter  77:  RMS(Cart)=    0.0000001146 RMS(Int)=    0.0000007009
 Iter  78:  RMS(Cart)=    0.0000001118 RMS(Int)=    0.0000006856
 Iter  79:  RMS(Cart)=    0.0000001091 RMS(Int)=    0.0000006706
 Iter  80:  RMS(Cart)=    0.0000001065 RMS(Int)=    0.0000006561
 Iter  81:  RMS(Cart)=    0.0000001040 RMS(Int)=    0.0000006419
 Iter  82:  RMS(Cart)=    0.0000001015 RMS(Int)=    0.0000006281
 Iter  83:  RMS(Cart)=    0.0000000991 RMS(Int)=    0.0000006147
 Iter  84:  RMS(Cart)=    0.0000000967 RMS(Int)=    0.0000006016
 Iter  85:  RMS(Cart)=    0.0000000944 RMS(Int)=    0.0000005889
 Iter  86:  RMS(Cart)=    0.0000000922 RMS(Int)=    0.0000005765
 Iter  87:  RMS(Cart)=    0.0000000901 RMS(Int)=    0.0000005645
 Iter  88:  RMS(Cart)=    0.0000000879 RMS(Int)=    0.0000005528
 Iter  89:  RMS(Cart)=    0.0000000859 RMS(Int)=    0.0000005413
 Iter  90:  RMS(Cart)=    0.0000000839 RMS(Int)=    0.0000005302
 Iter  91:  RMS(Cart)=    0.0000000820 RMS(Int)=    0.0000005194
 Iter  92:  RMS(Cart)=    0.0000000801 RMS(Int)=    0.0000005088
 Iter  93:  RMS(Cart)=    0.0000000782 RMS(Int)=    0.0000004985
 Iter  94:  RMS(Cart)=    0.0000000764 RMS(Int)=    0.0000004885
 Iter  95:  RMS(Cart)=    0.0000000747 RMS(Int)=    0.0000004787
 Iter  96:  RMS(Cart)=    0.0000000730 RMS(Int)=    0.0000004692
 Iter  97:  RMS(Cart)=    0.0000000713 RMS(Int)=    0.0000004599
 Iter  98:  RMS(Cart)=    0.0000000697 RMS(Int)=    0.0000004509
 Iter  99:  RMS(Cart)=    0.0000000681 RMS(Int)=    0.0000004421
 RMS(Cart) too big - taking linear step, building new B-matrix and trying again
Imposing constraints:
 Iter   0:  RMS(Cart)=    0.0000835509 RMS(Int)=    0.0000295536
 Iter   1:  RMS(Cart)=    0.0000437427 RMS(Int)=    0.0000175640
 Iter   2:  RMS(Cart)=    0.0000241625 RMS(Int)=    0.0000115048
 Iter   3:  RMS(Cart)=    0.0000141160 RMS(Int)=    0.0000082688
 Iter   4:  RMS(Cart)=    0.0000086956 RMS(Int)=    0.0000064633
 Iter   5:  RMS(Cart)=    0.0000056167 RMS(Int)=    0.0000054281
 Iter   6:  RMS(Cart)=    0.0000037858 RMS(Int)=    0.0000048184
 Iter   7:  RMS(Cart)=    0.0000026568 RMS(Int)=    0.0000044424
 Iter   8:  RMS(Cart)=    0.0000019422 RMS(Int)=    0.0000041923
 Iter   9:  RMS(Cart)=    0.0000014819 RMS(Int)=    0.0000040095
 Iter  10:  RMS(Cart)=    0.0000011819 RMS(Int)=    0.0000038632
 Iter  11:  RMS(Cart)=    0.0000009839 RMS(Int)=    0.0000037370
 Iter  12:  RMS(Cart)=    0.0000008512 RMS(Int)=    0.0000036226
 Iter  13:  RMS(Cart)=    0.0000007600 RMS(Int)=    0.0000035159
 Iter  14:  RMS(Cart)=    0.0000006954 RMS(Int)=    0.0000034146
 Iter  15:  RMS(Cart)=    0.0000006476 RMS(Int)=    0.0000033174
 Iter  16:  RMS(Cart)=    0.0000006109 RMS(Int)=    0.0000032238
 Iter  17:  RMS(Cart)=    0.0000005813 RMS(Int)=    0.0000031334
 Iter  18:  RMS(Cart)=    0.0000005566 RMS(Int)=    0.0000030460
 Iter  19:  RMS(Cart)=    0.0000005353 RMS(Int)=    0.0000029613
 Iter  20:  RMS(Cart)=    0.0000005163 RMS(Int)=    0.0000028793
 Iter  21:  RMS(Cart)=    0.0000004991 RMS(Int)=    0.0000027998
 Iter  22:  RMS(Cart)=    0.0000004833 RMS(Int)=    0.0000027228
 Iter  23:  RMS(Cart)=    0.0000004684 RMS(Int)=    0.0000026481
 Iter  24:  RMS(Cart)=    0.0000004544 RMS(Int)=    0.0000025758
 Iter  25:  RMS(Cart)=    0.0000004411 RMS(Int)=    0.0000025057
 Iter  26:  RMS(Cart)=    0.0000004284 RMS(Int)=    0.0000024377
 Iter  27:  RMS(Cart)=    0.0000004162 RMS(Int)=    0.0000023717
 Iter  28:  RMS(Cart)=    0.0000004044 RMS(Int)=    0.0000023078
 Iter  29:  RMS(Cart)=    0.0000003931 RMS(Int)=    0.0000022458
 Iter  30:  RMS(Cart)=    0.0000003821 RMS(Int)=    0.0000021857
 Iter  31:  RMS(Cart)=    0.0000003715 RMS(Int)=    0.0000021274
 Iter  32:  RMS(Cart)=    0.0000003613 RMS(Int)=    0.0000020709
 Iter  33:  RMS(Cart)=    0.0000003513 RMS(Int)=    0.0000020161
 Iter  34:  RMS(Cart)=    0.0000003417 RMS(Int)=    0.0000019629
 Iter  35:  RMS(Cart)=    0.0000003324 RMS(Int)=    0.0000019113
 Iter  36:  RMS(Cart)=    0.0000003234 RMS(Int)=    0.0000018612
 Iter  37:  RMS(Cart)=    0.0000003146 RMS(Int)=    0.0000018126
 Iter  38:  RMS(Cart)=    0.0000003061 RMS(Int)=    0.0000017655
 Iter  39:  RMS(Cart)=    0.0000002979 RMS(Int)=    0.0000017197
 Iter  40:  RMS(Cart)=    0.0000002899 RMS(Int)=    0.0000016754
 Iter  41:  RMS(Cart)=    0.0000002821 RMS(Int)=    0.0000016323
 Iter  42:  RMS(Cart)=    0.0000002746 RMS(Int)=    0.0000015905
 Iter  43:  RMS(Cart)=    0.0000002673 RMS(Int)=    0.0000015499
 Iter  44:  RMS(Cart)=    0.0000002602 RMS(Int)=    0.0000015105
 Iter  45:  RMS(Cart)=    0.0000002533 RMS(Int)=    0.0000014722
 Iter  46:  RMS(Cart)=    0.0000002466 RMS(Int)=    0.0000014351
 Iter  47:  RMS(Cart)=    0.0000002401 RMS(Int)=    0.0000013990
 Iter  48:  RMS(Cart)=    0.0000002338 RMS(Int)=    0.0000013640
 Iter  49:  RMS(Cart)=    0.0000002277 RMS(Int)=    0.0000013300
 Iter  50:  RMS(Cart)=    0.0000002218 RMS(Int)=    0.0000012970
 Iter  51:  RMS(Cart)=    0.0000002160 RMS(Int)=    0.0000012649
 Iter  52:  RMS(Cart)=    0.0000002104 RMS(Int)=    0.0000012338
 Iter  53:  RMS(Cart)=    0.0000002050 RMS(Int)=    0.0000012035
 Iter  54:  RMS(Cart)=    0.0000001997 RMS(Int)=    0.0000011741
 Iter  55:  RMS(Cart)=    0.0000001945 RMS(Int)=    0.0000011456
 Iter  56:  RMS(Cart)=    0.0000001896 RMS(Int)=    0.0000011179
 Iter  57:  RMS(Cart)=    0.0000001847 RMS(Int)=    0.0000010909
 Iter  58:  RMS(Cart)=    0.0000001800 RMS(Int)=    0.0000010647
 Iter  59:  RMS(Cart)=    0.0000001754 RMS(Int)=    0.0000010393
 Iter  60:  RMS(Cart)=    0.0000001710 RMS(Int)=    0.0000010146
 Iter  61:  RMS(Cart)=    0.0000001667 RMS(Int)=    0.0000009905
CONVERGED
Small eigenvalue found = 7.741e-03
Small eigenvalue found = 1.549e-02
Small eigenvalue found = 1.770e-02
The first mode is                       ....   91
The number of degrees of freedom        ....   81
Storing new coordinates                 .... done

    -----------------------------------------------------------------
                    Redundant Internal Coordinates


    -----------------------------------------------------------------
         Definition                    Initial Value    Approx d2E/dq
    -----------------------------------------------------------------
      1. B(C   1,C   0)                  1.5333         0.369027   
      2. B(C   2,C   1)                  1.5471         0.350825   
      3. B(C   3,C   2)                  1.5492         0.348147   
      4. B(O   4,C   0)                  1.4668         0.422031   
      5. B(O   4,C   3)                  1.4789         0.403699   
      6. B(H   5,C   0)                  1.0919         0.357632   
      7. B(H   6,C   1)                  1.0958         0.352561   
      8. B(H   7,C   1)                  1.0951         0.353431   
      9. B(H   8,C   2)                  1.0945         0.354166   
     10. B(H   9,C   2)                  1.0966         0.351438   
     11. B(H  10,C   3)                  1.0954         0.353010   
     12. B(H  11,C   3)                  1.0939         0.354989   
     13. B(H  13,C  12)                  1.0969         0.351113   
     14. B(H  14,C  12)                  1.0977         0.350077   
     15. B(O  15,C   0)                  1.5525         0.307993   
     16. B(O  15,C  12)                  1.5533         0.307167   
     17. B(C  16,C  12)                  1.5539         0.342123   
     18. B(C  17,C  16)                  1.5321         0.370713   
     19. B(C  18,C  17)                  1.5475         0.350353   
     20. B(C  19,C  18)                  1.5485         0.349030   
     21. B(O  20,C  16)                  1.4669         0.421875   
     22. B(O  20,C  19)                  1.4794         0.402937   
     23. B(H  21,C  16)                  1.0920         0.357405   
     24. B(H  22,C  17)                  1.0961         0.352173   
     25. B(O  23,C  17)                  1.5542         0.306105   
     26. B(H  24,C  18)                  1.0949         0.353624   
     27. B(H  25,C  18)                  1.0968         0.351174   
     28. B(H  26,C  19)                  1.0958         0.352532   
     29. B(H  27,C  19)                  1.0932         0.355856   
     30. B(H  28,O  23)                  1.0950         0.316639   
     31. A(O   4,C   0,H   5)          107.0169         0.328541   
     32. A(C   1,C   0,O  15)          111.3059         0.348740   
     33. A(C   1,C   0,O   4)          104.2508         0.367935   
     34. A(O   4,C   0,O  15)          110.4723         0.354548   
     35. A(C   1,C   0,H   5)          114.4405         0.323302   
     36. A(H   5,C   0,O  15)          109.1543         0.312058   
     37. A(C   0,C   1,C   2)          101.6783         0.358729   
     38. A(C   2,C   1,H   7)          112.8333         0.320016   
     39. A(C   2,C   1,H   6)          110.6702         0.319888   
     40. A(C   0,C   1,H   6)          110.0681         0.322546   
     41. A(H   6,C   1,H   7)          108.3679         0.289027   
     42. A(C   0,C   1,H   7)          113.1246         0.322677   
     43. A(C   1,C   2,H   8)          112.8313         0.320125   
     44. A(C   1,C   2,C   3)          103.1285         0.355196   
     45. A(C   1,C   2,H   9)          110.0795         0.319721   
     46. A(C   3,C   2,H   9)          110.6148         0.319321   
     47. A(C   3,C   2,H   8)          112.4033         0.319725   
     48. A(H   8,C   2,H   9)          107.7731         0.288977   
     49. A(O   4,C   3,H  10)          109.1301         0.325449   
     50. A(C   2,C   3,H  10)          112.5254         0.319554   
     51. A(C   2,C   3,O   4)          106.5268         0.361529   
     52. A(O   4,C   3,H  11)          107.1239         0.325748   
     53. A(H  10,C   3,H  11)          108.8727         0.289284   
     54. A(C   2,C   3,H  11)          112.4569         0.319846   
     55. A(C   0,O   4,C   3)          108.3129         0.371320   
     56. A(H  14,C  12,C  16)          107.7258         0.318212   
     57. A(H  13,C  12,H  14)          108.1934         0.288410   
     58. A(H  13,C  12,O  15)          109.2598         0.310996   
     59. A(H  14,C  12,O  15)          110.4419         0.310847   
     60. A(O  15,C  12,C  16)          112.7510         0.344173   
     61. A(H  13,C  12,C  16)          108.3433         0.318365   
     62. A(C   0,O  15,C  12)          115.1661         0.336124   
     63. A(C  12,C  16,C  17)          111.3008         0.357477   
     64. A(C  12,C  16,O  20)          110.4747         0.363174   
     65. A(C  17,C  16,O  20)          104.2515         0.368200   
     66. A(C  12,C  16,H  21)          109.0950         0.319289   
     67. A(C  17,C  16,H  21)          114.4863         0.323511   
     68. A(O  20,C  16,H  21)          107.0365         0.328487   
     69. A(C  16,C  17,C  18)          101.7201         0.358925   
     70. A(C  16,C  17,H  22)          110.1280         0.322729   
     71. A(C  18,C  17,H  22)          110.6382         0.319760   
     72. A(C  16,C  17,O  23)          113.1353         0.348647   
     73. A(C  18,C  17,O  23)          112.7893         0.345348   
     74. A(H  22,C  17,O  23)          108.3369         0.310973   
     75. A(C  17,C  18,C  19)          103.1070         0.355268   
     76. A(C  17,C  18,H  24)          112.8265         0.319975   
     77. A(C  19,C  18,H  24)          112.4194         0.319777   
     78. A(C  17,C  18,H  25)          110.0530         0.319612   
     79. A(C  19,C  18,H  25)          110.6081         0.319414   
     80. A(H  24,C  18,H  25)          107.8123         0.288873   
     81. A(C  18,C  19,O  20)          106.5300         0.361569   
     82. A(C  18,C  19,H  26)          112.5318         0.319615   
     83. A(O  20,C  19,H  26)          109.0650         0.325275   
     84. A(C  18,C  19,H  27)          112.4964         0.320106   
     85. A(O  20,C  19,H  27)          107.0796         0.325777   
     86. A(H  26,C  19,H  27)          108.9244         0.289333   
     87. A(C  16,O  20,C  19)          108.3010         0.371176   
     88. A(C  17,O  23,H  28)          109.6638         0.303168   
     89. D(H   7,C   1,C   0,H   5)     82.1534         0.010890   
     90. D(C   2,C   1,C   0,O  15)     79.0886         0.010890   
     91. D(H   7,C   1,C   0,O  15)    -42.1860         0.010890   
     92. D(H   6,C   1,C   0,O   4)     77.3246         0.010890   
     93. D(H   6,C   1,C   0,O  15)   -163.5721         0.010890   
     94. D(H   6,C   1,C   0,H   5)    -39.2327         0.010890   
     95. D(H   7,C   1,C   0,O   4)   -161.2893         0.010890   
     96. D(C   2,C   1,C   0,O   4)    -40.0146         0.010890 C 
     97. D(C   2,C   1,C   0,H   5)   -156.5720         0.010890   
     98. D(H   9,C   2,C   1,H   6)    160.0777         0.009912   
     99. D(H   8,C   2,C   1,C   0)    156.5478         0.009912   
    100. D(H   8,C   2,C   1,H   6)     39.6450         0.009912   
    101. D(C   3,C   2,C   1,C   0)     35.0268         0.009912 C 
    102. D(H   8,C   2,C   1,H   7)    -81.9750         0.009912   
    103. D(H   9,C   2,C   1,C   0)    -83.0195         0.009912   
    104. D(C   3,C   2,C   1,H   6)    -81.8760         0.009912   
    105. D(H   9,C   2,C   1,H   7)     38.4577         0.009912   
    106. D(C   3,C   2,C   1,H   7)    156.5040         0.009912   
    107. D(H  11,C   3,C   2,H   9)   -143.4627         0.009774   
    108. D(O   4,C   3,C   2,H   8)   -140.0068         0.009774   
    109. D(O   4,C   3,C   2,H   9)     99.4741         0.009774   
    110. D(H  10,C   3,C   2,C   1)   -137.7432         0.009774   
    111. D(H  10,C   3,C   2,H   8)    100.4467         0.009774   
    112. D(H  10,C   3,C   2,H   9)    -20.0724         0.009774   
    113. D(H  11,C   3,C   2,C   1)     98.8666         0.009774   
    114. D(O   4,C   3,C   2,C   1)    -18.1967         0.009774 C 
    115. D(H  11,C   3,C   2,H   8)    -22.9435         0.009774   
    116. D(C   3,O   4,C   0,C   1)     29.5920         0.014035 C 
    117. D(C   3,O   4,C   0,H   5)    151.2039         0.014035   
    118. D(C   3,O   4,C   0,O  15)    -90.0762         0.014035   
    119. D(C   0,O   4,C   3,C   2)     -6.8730         0.012866 C 
    120. D(C   0,O   4,C   3,H  10)    114.8547         0.012866   
    121. D(C   0,O   4,C   3,H  11)   -127.4270         0.012866   
    122. D(C   0,O  15,C  12,C  16)   -165.0000         0.007757 C 
    123. D(C  12,O  15,C   0,O   4)    -75.0000         0.007793 C 
    124. D(C  12,O  15,C   0,H   5)     42.4107         0.007793   
    125. D(C   0,O  15,C  12,H  14)     74.4264         0.007757   
    126. D(C   0,O  15,C  12,H  13)    -44.4680         0.007757   
    127. D(C  12,O  15,C   0,C   1)    169.6822         0.007793   
    128. D(C  17,C  16,C  12,H  13)     63.6538         0.009467   
    129. D(H  21,C  16,C  12,H  14)    179.5433         0.009467   
    130. D(C  17,C  16,C  12,O  15)   -175.2907         0.009467   
    131. D(O  20,C  16,C  12,H  13)    178.9710         0.009467   
    132. D(O  20,C  16,C  12,H  14)     62.1430         0.009467   
    133. D(O  20,C  16,C  12,O  15)    -59.9735         0.009467 C 
    134. D(C  17,C  16,C  12,H  14)    -53.1742         0.009467   
    135. D(H  21,C  16,C  12,H  13)    -63.6287         0.009467   
    136. D(H  21,C  16,C  12,O  15)     57.4268         0.009467   
    137. D(C  18,C  17,C  16,C  12)     79.1023         0.010983   
    138. D(C  18,C  17,C  16,O  20)    -40.0016         0.010983 C 
    139. D(C  18,C  17,C  16,H  21)   -156.6065         0.010983   
    140. D(H  22,C  17,C  16,C  12)   -163.5480         0.010983   
    141. D(H  22,C  17,C  16,O  20)     77.3480         0.010983   
    142. D(H  22,C  17,C  16,H  21)    -39.2569         0.010983   
    143. D(O  23,C  17,C  16,C  12)    -42.1511         0.010983   
    144. D(O  23,C  17,C  16,O  20)   -161.2551         0.010983   
    145. D(O  23,C  17,C  16,H  21)     82.1400         0.010983   
    146. D(H  24,C  18,C  17,O  23)    -81.9470         0.009888   
    147. D(C  19,C  18,C  17,H  22)    -81.9454         0.009888   
    148. D(C  19,C  18,C  17,O  23)    156.5287         0.009888   
    149. D(H  24,C  18,C  17,C  16)    156.5591         0.009888   
    150. D(C  19,C  18,C  17,C  16)     35.0348         0.009888 C 
    151. D(H  24,C  18,C  17,H  22)     39.5789         0.009888   
    152. D(H  25,C  18,C  17,C  16)    -82.9801         0.009888   
    153. D(H  25,C  18,C  17,H  22)    160.0397         0.009888   
    154. D(H  25,C  18,C  17,O  23)     38.5138         0.009888   
    155. D(H  27,C  19,C  18,H  25)   -143.5372         0.009819   
    156. D(O  20,C  19,C  18,H  24)   -139.9949         0.009819   
    157. D(O  20,C  19,C  18,H  25)     99.4296         0.009819   
    158. D(H  26,C  19,C  18,C  17)   -137.6680         0.009819   
    159. D(H  26,C  19,C  18,H  24)    100.5326         0.009819   
    160. D(H  26,C  19,C  18,H  25)    -20.0429         0.009819   
    161. D(H  27,C  19,C  18,C  17)     98.8376         0.009819   
    162. D(O  20,C  19,C  18,C  17)    -18.1955         0.009819 C 
    163. D(H  27,C  19,C  18,H  24)    -22.9618         0.009819   
    164. D(C  19,O  20,C  16,C  12)    -90.0991         0.014025   
    165. D(C  19,O  20,C  16,C  17)     29.5648         0.014025 C 
    166. D(C  19,O  20,C  16,H  21)    151.2393         0.014025   
    167. D(C  16,O  20,C  19,C  18)     -6.8406         0.012819 C 
    168. D(C  16,O  20,C  19,H  26)    114.8601         0.012819   
    169. D(C  16,O  20,C  19,H  27)   -127.4193         0.012819   
    170. D(H  28,O  23,C  17,C  16)     57.6601         0.007710   
    171. D(H  28,O  23,C  17,C  18)    -57.1183         0.007710   
    172. D(H  28,O  23,C  17,H  22)   -179.9389         0.007710   
    -----------------------------------------------------------------

Number of atoms                         .... 29
Number of degrees of freedom            .... 172

         *************************************************************
         *                GEOMETRY OPTIMIZATION CYCLE   1            *
         *************************************************************
---------------------------------
CARTESIAN COORDINATES (ANGSTROEM)
---------------------------------
  C    -21.048072   26.222170   46.250847
  C    -20.361120   27.558219   45.944002
  C    -20.328914   28.221929   47.341127
  C    -20.109776   27.021750   48.295873
  O    -20.472892   25.806891   47.534683
  H    -20.833182   25.428279   45.532694
  H    -19.344172   27.382293   45.575825
  H    -20.898225   28.157362   45.201193
  H    -19.542898   28.977909   47.434160
  H    -21.288884   28.709889   47.548362
  H    -20.732646   27.081582   49.194974
  H    -19.063733   26.912691   48.596702
  C    -23.395980   25.070035   46.435185
  H    -23.014968   24.377991   45.674232
  H    -23.281918   24.595125   47.418222
  O    -22.586062   26.394081   46.375101
  C    -24.914964   25.282894   46.185971
  C    -25.696908   23.977872   46.367029
  C    -25.806104   23.888064   47.908024
  C    -25.949249   25.369109   48.336824
  O    -25.479147   26.184996   47.195781
  H    -25.053865   25.762775   45.214898
  H    -26.690854   24.067755   45.913889
  O    -24.983753   22.746837   45.741273
  H    -26.650111   23.274056   48.238990
  H    -24.890132   23.452172   48.325198
  H    -25.348379   25.610253   49.220873
  H    -26.988290   25.651071   48.526654
  H    -23.986803   22.635951   46.180416

----------------------------
CARTESIAN COORDINATES (A.U.)
----------------------------
  NO LB      ZA    FRAG     MASS         X           Y           Z
   0 C     6.0000    0    12.011  -39.775092   49.552719   87.401435
   1 C     6.0000    0    12.011  -38.476941   52.077487   86.821582
   2 C     6.0000    0    12.011  -38.416080   53.331717   89.461764
   3 C     6.0000    0    12.011  -38.001969   51.063708   91.265973
   4 O     8.0000    0    15.999  -38.688159   48.767956   89.827533
   5 H     1.0000    0     1.008  -39.369009   48.052483   86.044321
   6 H     1.0000    0     1.008  -36.555187   51.745034   86.125827
   7 H     1.0000    0     1.008  -39.491922   53.209702   85.417876
   8 H     1.0000    0     1.008  -36.930725   54.760311   89.637571
   9 H     1.0000    0     1.008  -40.230160   54.253827   89.853382
  10 H     1.0000    0     1.008  -39.179022   51.176773   92.965028
  11 H     1.0000    0     1.008  -36.025234   50.857616   91.834457
  12 C     6.0000    0    12.011  -44.211994   47.375500   87.749783
  13 H     1.0000    0     1.008  -43.491986   46.067726   86.311789
  14 H     1.0000    0     1.008  -43.996450   46.478051   89.607453
  15 O     8.0000    0    15.999  -42.681471   49.877585   87.636240
  16 C     6.0000    0    12.011  -47.082459   47.777746   87.278837
  17 C     6.0000    0    12.011  -48.560118   45.311612   87.620986
  18 C     6.0000    0    12.011  -48.766469   45.141900   90.533044
  19 C     6.0000    0    12.011  -49.036974   47.940668   91.343360
  20 O     8.0000    0    15.999  -48.148610   49.482471   89.187100
  21 H     1.0000    0     1.008  -47.344944   48.684589   85.443774
  22 H     1.0000    0     1.008  -50.438405   45.481467   86.764676
  23 O     8.0000    0    15.999  -47.212452   42.985292   86.438480
  24 H     1.0000    0     1.008  -50.361411   43.981592   91.158480
  25 H     1.0000    0     1.008  -47.035533   44.318182   91.321389
  26 H     1.0000    0     1.008  -47.901493   48.396365   93.013970
  27 H     1.0000    0     1.008  -51.000478   48.473498   91.702087
  28 H     1.0000    0     1.008  -45.328489   42.775748   87.268339

--------------------------------
INTERNAL COORDINATES (ANGSTROEM)
--------------------------------
 C      0   0   0     0.000000000000     0.00000000     0.00000000
 C      1   0   0     1.533334275362     0.00000000     0.00000000
 C      2   1   0     1.547103422529   101.67907390     0.00000000
 C      3   2   1     1.549188819996   103.12737509    35.02687180
 O      1   2   3     1.466801281701   104.24948604   319.98542309
 H      1   2   3     1.091872245274   114.43876658   203.42640133
 H      2   1   3     1.095759553917   110.06782188   117.34000099
 H      2   1   3     1.095088580892   113.12442239   238.72597460
 H      3   2   1     1.094523183857   112.83161078   156.54780790
 H      3   2   1     1.096628013503   110.07982737   276.98070077
 H      4   3   2     1.095413164062   112.52534669   222.25678475
 H      4   3   2     1.093891219455   112.45670684    98.86663270
 C      1   2   3     2.621843626153   142.95245674    88.26785604
 H     13   1   2     1.096880121071    85.26431056   122.32376359
 H     13   1   2     1.097683925363    99.20542602   230.01923433
 O      1   2   3     1.552547583812   111.30349807    79.08752829
 C     13   1   2     1.553940475050   143.50840048     7.53744361
 C     17  13   1     1.532093339193   111.30005329   171.23892535
 C     18  17  13     1.547469547358   101.72041389    79.10189001
 C     19  18  17     1.548499596384   103.10666407    35.03486060
 O     17  13   1     1.466901496352   110.47483407   286.55514499
 H     17  13   1     1.092044870873   109.09571776    43.95699780
 H     18  17  13     1.096058848785   110.12795986   196.45177141
 O     18  17  13     1.554221991866   113.13518044   317.84861347
 H     19  18  17     1.094939724368   112.82663545   156.55911728
 H     19  18  17     1.096832257002   110.05307629   277.01999999
 H     20  19  18     1.095781912609   112.53179816   222.33197647
 H     20  19  18     1.093226874898   112.49629995    98.83765869
 H     24  18  17     1.095011872082   109.66383160    57.66021910

---------------------------
INTERNAL COORDINATES (A.U.)
---------------------------
 C      0   0   0     0.000000000000     0.00000000     0.00000000
 C      1   0   0     2.897581852189     0.00000000     0.00000000
 C      2   1   0     2.923601769431   101.67907390     0.00000000
 C      3   2   1     2.927542599525   103.12737509    35.02687180
 O      1   2   3     2.771852715300   104.24948604   319.98542309
 H      1   2   3     2.063339516798   114.43876658   203.42640133
 H      2   1   3     2.070685465531   110.06782188   117.34000099
 H      2   1   3     2.069417510270   113.12442239   238.72597460
 H      3   2   1     2.068349064717   112.83161078   156.54780790
 H      3   2   1     2.072326616307   110.07982737   276.98070077
 H      4   3   2     2.070030883569   112.52534669   222.25678475
 H      4   3   2     2.067154825070   112.45670684    98.86663270
 C      1   2   3     4.954566419397   142.95245674    88.26785604
 H     13   1   2     2.072803030566    85.26431056   122.32376359
 H     13   1   2     2.074322000543    99.20542602   230.01923433
 O      1   2   3     2.933889743286   111.30349807    79.08752829
 C     13   1   2     2.936521926261   143.50840048     7.53744361
 C     17  13   1     2.895236822680   111.30005329   171.23892535
 C     18  17  13     2.924293645089   101.72041389    79.10189001
 C     19  18  17     2.926240155652   103.10666407    35.03486060
 O     17  13   1     2.772042093545   110.47483407   286.55514499
 H     17  13   1     2.063665731903   109.09571776    43.95699780
 H     18  17  13     2.071251050865   110.12795986   196.45177141
 O     18  17  13     2.937053915944   113.13518044   317.84861347
 H     19  18  17     2.069136212208   112.82663545   156.55911728
 H     19  18  17     2.072712580584   110.05307629   277.01999999
 H     20  19  18     2.070727717335   112.53179816   222.33197647
 H     20  19  18     2.065899395800   112.49629995    98.83765869
 H     24  18  17     2.069272551627   109.66383160    57.66021910

---------------------
BASIS SET INFORMATION
---------------------
There are 3 groups of distinct atoms

 Group   1 Type C   : 10s4p contracted to 3s2p pattern {631/31}
 Group   2 Type O   : 10s4p contracted to 3s2p pattern {631/31}
 Group   3 Type H   : 4s contracted to 2s pattern {31}

Atom   0C    basis set group =>   1
Atom   1C    basis set group =>   1
Atom   2C    basis set group =>   1
Atom   3C    basis set group =>   1
Atom   4O    basis set group =>   2
Atom   5H    basis set group =>   3
Atom   6H    basis set group =>   3
Atom   7H    basis set group =>   3
Atom   8H    basis set group =>   3
Atom   9H    basis set group =>   3
Atom  10H    basis set group =>   3
Atom  11H    basis set group =>   3
Atom  12C    basis set group =>   1
Atom  13H    basis set group =>   3
Atom  14H    basis set group =>   3
Atom  15O    basis set group =>   2
Atom  16C    basis set group =>   1
Atom  17C    basis set group =>   1
Atom  18C    basis set group =>   1
Atom  19C    basis set group =>   1
Atom  20O    basis set group =>   2
Atom  21H    basis set group =>   3
Atom  22H    basis set group =>   3
Atom  23O    basis set group =>   2
Atom  24H    basis set group =>   3
Atom  25H    basis set group =>   3
Atom  26H    basis set group =>   3
Atom  27H    basis set group =>   3
Atom  28H    basis set group =>   3
------------------------------------------------------------------------------
                           ORCA GTO INTEGRAL CALCULATION
------------------------------------------------------------------------------

                         BASIS SET STATISTICS AND STARTUP INFO

 # of primitive gaussian shells          ...  246
 # of primitive gaussian functions       ...  350
 # of contracted shells                  ...   97
 # of contracted basis functions         ...  149
 Highest angular momentum                ...    1
 Maximum contraction depth               ...    6
 Integral package used                   ... LIBINT
 Integral threshhold            Thresh   ...  2.500e-11
 Primitive cut-off              TCut     ...  2.500e-12


------------------------------ INTEGRAL EVALUATION ----------------------------


 * One electron integrals 
 Pre-screening matrix                    ... done
 Shell pair data                         ... done (   0.003 sec)

-------------------------------------------------------------------------------
                                 ORCA SCF
-------------------------------------------------------------------------------

------------
SCF SETTINGS
------------
Hamiltonian:
 Density Functional     Method          .... DFT(GTOs)
 Exchange Functional    Exchange        .... B88
   X-Alpha parameter    XAlpha          ....  0.666667
   Becke's b parameter  XBeta           ....  0.004200
 Correlation Functional Correlation     .... LYP
 LDA part of GGA corr.  LDAOpt          .... VWN-5
 Gradients option       PostSCFGGA      .... off
 Hybrid DFT is turned on
   Fraction HF Exchange ScalHFX         ....  0.200000
   Scaling of DF-GGA-X  ScalDFX         ....  0.720000
   Scaling of DF-GGA-C  ScalDFC         ....  0.810000
   Scaling of DF-LDA-C  ScalLDAC        ....  1.000000
   Perturbative correction              ....  0.000000
   Density functional embedding theory  .... OFF
   NL short-range parameter             ....  4.800000


General Settings:
 Integral files         IntName         .... project_8053/ensemble_285_195
 Hartree-Fock type      HFTyp           .... RHF
 Total Charge           Charge          ....    0
 Multiplicity           Mult            ....    1
 Number of Electrons    NEL             ....  102
 Basis Dimension        Dim             ....  149
 Nuclear Repulsion      ENuc            ....    850.3863196971 Eh

Convergence Acceleration:
 DIIS                   CNVDIIS         .... on
   Start iteration      DIISMaxIt       ....    12
   Startup error        DIISStart       ....  0.200000
   # of expansion vecs  DIISMaxEq       ....     5
   Bias factor          DIISBfac        ....   1.050
   Max. coefficient     DIISMaxC        ....  10.000
 Newton-Raphson         CNVNR           .... off
 SOSCF                  CNVSOSCF        .... on
   Start iteration      SOSCFMaxIt      ....   150
   Startup grad/error   SOSCFStart      ....  0.003300
 Level Shifting         CNVShift        .... on
   Level shift para.    LevelShift      ....    0.2500
   Turn off err/grad.   ShiftErr        ....    0.0010
 Zerner damping         CNVZerner       .... off
 Static damping         CNVDamp         .... on
   Fraction old density DampFac         ....    0.7000
   Max. Damping (<1)    DampMax         ....    0.9800
   Min. Damping (>=0)   DampMin         ....    0.0000
   Turn off err/grad.   DampErr         ....    0.1000
 Fernandez-Rico         CNVRico         .... off

SCF Procedure:
 Maximum # iterations   MaxIter         ....   125
 SCF integral mode      SCFMode         .... Direct
   Integral package                     .... LIBINT
 Reset frequency        DirectResetFreq ....    20
 Integral Threshold     Thresh          ....  2.500e-11 Eh
 Primitive CutOff       TCut            ....  2.500e-12 Eh

Convergence Tolerance:
 Convergence Check Mode ConvCheckMode   .... Total+1el-Energy
 Convergence forced     ConvForced      .... 0
 Energy Change          TolE            ....  1.000e-08 Eh
 1-El. energy change                    ....  1.000e-05 Eh
 Orbital Gradient       TolG            ....  1.000e-05
 Orbital Rotation angle TolX            ....  1.000e-05
 DIIS Error             TolErr          ....  5.000e-07


Diagonalization of the overlap matrix:
Smallest eigenvalue                        ... 3.893e-03
Time for diagonalization                   ...    0.007 sec
Threshold for overlap eigenvalues          ... 1.000e-08
Number of eigenvalues below threshold      ... 0
Time for construction of square roots      ...    0.203 sec
Total time needed                          ...    0.211 sec

-------------------
DFT GRID GENERATION
-------------------

General Integration Accuracy     IntAcc      ...  4.340
Radial Grid Type                 RadialGrid  ... Gauss-Chebyshev
Angular Grid (max. acc.)         AngularGrid ... Lebedev-110
Angular grid pruning method      GridPruning ... 3 (G Style)
Weight generation scheme         WeightScheme... Becke
Basis function cutoff            BFCut       ...    1.0000e-11
Integration weight cutoff        WCut        ...    1.0000e-14
Grids for H and He will be reduced by one unit

# of grid points (after initial pruning)     ...  34472 (   0.0 sec)
# of grid points (after weights+screening)   ...  31108 (   0.5 sec)
nearest neighbour list constructed           ...    0.0 sec
Grid point re-assignment to atoms done       ...    0.0 sec
Grid point division into batches done        ...    0.0 sec
Reduced shell lists constructed in    0.6 sec

Total number of grid points                  ...    31108
Total number of batches                      ...      500
Average number of points per batch           ...       62
Average number of grid points per atom       ...     1073
Average number of shells per batch           ...    56.77 (58.53%)
Average number of basis functions per batch  ...    92.19 (61.87%)
Average number of large shells per batch     ...    39.39 (69.39%)
Average number of large basis fcns per batch ...    65.12 (70.64%)
Maximum spatial batch extension              ...  19.49, 20.09, 20.03 au
Average spatial batch extension              ...   3.26,  3.40,  3.38 au

Time for grid setup =    1.172 sec

------------------------------
INITIAL GUESS: MODEL POTENTIAL
------------------------------
Loading Hartree-Fock densities                     ... done
Calculating cut-offs                               ... done
Setting up the integral package                    ... done
Initializing the effective Hamiltonian             ... done
Starting the Coulomb interaction                   ... done (   0.6 sec)
Reading the grid                                   ... done
Mapping shells                                     ... done
Starting the XC term evaluation                    ... done (   0.5 sec)
  promolecular density results
     # of electrons  =    101.989623112
     EX              =    -83.662920629
     EC              =     -3.455545089
     EX+EC           =    -87.118465718
Transforming the Hamiltonian                       ... done (   0.0 sec)
Diagonalizing the Hamiltonian                      ... done (   0.0 sec)
Back transforming the eigenvectors                 ... done (   0.0 sec)
Now organizing SCF variables                       ... done
                      ------------------
                      INITIAL GUESS DONE (   2.4 sec)
                      ------------------
--------------
SCF ITERATIONS
--------------
ITER       Energy         Delta-E        Max-DP      RMS-DP      [F,P]     Damp
               ***  Starting incremental Fock matrix formation  ***
  0   -652.5314138118   0.000000000000 0.07445149  0.00308323  0.2407162 0.7000
  1   -652.6725535908  -0.141139779065 0.04381420  0.00210468  0.1072279 0.7000
                               ***Turning on DIIS***
  2   -652.7253692385  -0.052815647646 0.05821482  0.00333742  0.0330793 0.0000
  3   -652.8121731571  -0.086803918594 0.02971709  0.00139330  0.0566984 0.0000
  4   -652.8298700810  -0.017696923896 0.00828621  0.00043237  0.0094811 0.0000
  5   -652.8308813331  -0.001011252127 0.00264572  0.00012996  0.0044434 0.0000
                      *** Initiating the SOSCF procedure ***
                           *** Shutting down DIIS ***
                      *** Re-Reading the Fockian *** 
                      *** Removing any level shift *** 
ITER      Energy       Delta-E        Grad      Rot      Max-DP    RMS-DP
  6   -652.83095146  -0.0000701229  0.000178  0.000178  0.000938  0.000055
               *** Restarting incremental Fock matrix formation ***
  7   -652.83095413  -0.0000026728  0.000142  0.000263  0.001190  0.000037
  8   -652.83095073   0.0000033939  0.000277  0.000180  0.000824  0.000024
  9   -652.83095571  -0.0000049765  0.000024  0.000042  0.000226  0.000006
 10   -652.83095565   0.0000000660  0.000038  0.000025  0.000130  0.000004
 11   -652.83095577  -0.0000001250  0.000005  0.000008  0.000034  0.000001
 12   -652.83095577   0.0000000023  0.000007  0.000005  0.000020  0.000001
                  ***Gradient check signals convergence***
              ***Rediagonalizing the Fockian in SOSCF/NRSCF***

               *****************************************************
               *                     SUCCESS                       *
               *           SCF CONVERGED AFTER  13 CYCLES          *
               *****************************************************

Setting up the final grid:

General Integration Accuracy     IntAcc      ...  4.670
Radial Grid Type                 RadialGrid  ... Gauss-Chebyshev
Angular Grid (max. acc.)         AngularGrid ... Lebedev-302
Angular grid pruning method      GridPruning ... 3 (G Style)
Weight generation scheme         WeightScheme... Becke
Basis function cutoff            BFCut       ...    1.0000e-11
Integration weight cutoff        WCut        ...    1.0000e-14
Grids for H and He will be reduced by one unit

# of grid points (after initial pruning)     ... 135060 (   0.1 sec)
# of grid points (after weights+screening)   ... 119325 (   1.8 sec)
nearest neighbour list constructed           ...    0.0 sec
Grid point re-assignment to atoms done       ...    0.0 sec
Grid point division into batches done        ...    0.6 sec
Reduced shell lists constructed in    2.4 sec

Total number of grid points                  ...   119325
Total number of batches                      ...     1878
Average number of points per batch           ...       63
Average number of grid points per atom       ...     4115
Average number of shells per batch           ...    51.45 (53.04%)
Average number of basis functions per batch  ...    83.82 (56.25%)
Average number of large shells per batch     ...    35.26 (68.54%)
Average number of large basis fcns per batch ...    58.45 (69.74%)
Maximum spatial batch extension              ...  19.07, 19.74, 20.70 au
Average spatial batch extension              ...   2.14,  2.28,  2.24 au

Final grid set up in    4.4 sec
Final integration                            ... done (   3.3 sec)
Change in XC energy                          ...     0.000032024
Integrated number of electrons               ...   101.999824720
Previous integrated no of electrons          ...   101.999704656

----------------
TOTAL SCF ENERGY
----------------

Total Energy       :         -652.83092375 Eh          -17764.43256 eV

Components:
Nuclear Repulsion  :          850.38631970 Eh           23140.18818 eV
Electronic Energy  :        -1503.21724345 Eh          -40904.62074 eV
One Electron Energy:        -2578.68336471 Eh          -70169.54170 eV
Two Electron Energy:         1075.46612126 Eh           29264.92096 eV

Virial components:
Potential Energy   :        -1301.73142359 Eh          -35421.91285 eV
Kinetic Energy     :          648.90049984 Eh           17657.48029 eV
Virial Ratio       :            2.00605705


DFT components:
N(Alpha)           :       50.999912359976 electrons
N(Beta)            :       50.999912359976 electrons
N(Total)           :      101.999824719952 electrons
E(X)               :      -67.585570797169 Eh       
E(C)               :       -4.067592053411 Eh       
E(XC)              :      -71.653162850581 Eh       
DFET-embed. en.    :        0.000000000000 Eh       

---------------
SCF CONVERGENCE
---------------

  Last Energy change         ...   -4.6441e-09  Tolerance :   1.0000e-08
  Last MAX-Density change    ...    2.7264e-06  Tolerance :   1.0000e-07
  Last RMS-Density change    ...    1.0015e-07  Tolerance :   5.0000e-09
  Last Orbital Gradient      ...    3.1403e-07  Tolerance :   1.0000e-05
  Last Orbital Rotation      ...    6.2507e-07  Tolerance :   1.0000e-05

             **** THE GBW FILE WAS UPDATED (project_8053/ensemble_285_195.gbw) ****
             **** DENSITY FILE WAS UPDATED (project_8053/ensemble_285_195.scfp) ****
             **** ENERGY FILE WAS UPDATED (project_8053/ensemble_285_195.en.tmp) ****
             **** THE GBW FILE WAS UPDATED (project_8053/ensemble_285_195.gbw) ****
             **** DENSITY FILE WAS UPDATED (project_8053/ensemble_285_195.scfp) ****
----------------
ORBITAL ENERGIES
----------------

  NO   OCC          E(Eh)            E(eV) 
   0   2.0000     -19.156634      -521.2785 
   1   2.0000     -19.143772      -520.9285 
   2   2.0000     -19.140338      -520.8351 
   3   2.0000     -19.137812      -520.7663 
   4   2.0000     -10.282324      -279.7963 
   5   2.0000     -10.251556      -278.9590 
   6   2.0000     -10.238686      -278.6088 
   7   2.0000     -10.233344      -278.4634 
   8   2.0000     -10.229350      -278.3548 
   9   2.0000     -10.224382      -278.2196 
  10   2.0000     -10.194598      -277.4091 
  11   2.0000     -10.190273      -277.2914 
  12   2.0000     -10.184604      -277.1372 
  13   2.0000      -1.031203       -28.0604 
  14   2.0000      -1.024046       -27.8657 
  15   2.0000      -0.976030       -26.5591 
  16   2.0000      -0.956064       -26.0158 
  17   2.0000      -0.787190       -21.4205 
  18   2.0000      -0.783679       -21.3250 
  19   2.0000      -0.762331       -20.7441 
  20   2.0000      -0.728993       -19.8369 
  21   2.0000      -0.677615       -18.4388 
  22   2.0000      -0.603882       -16.4325 
  23   2.0000      -0.596105       -16.2208 
  24   2.0000      -0.585860       -15.9421 
  25   2.0000      -0.572173       -15.5696 
  26   2.0000      -0.521162       -14.1815 
  27   2.0000      -0.498807       -13.5732 
  28   2.0000      -0.490633       -13.3508 
  29   2.0000      -0.484654       -13.1881 
  30   2.0000      -0.463440       -12.6108 
  31   2.0000      -0.443762       -12.0754 
  32   2.0000      -0.437332       -11.9004 
  33   2.0000      -0.436072       -11.8661 
  34   2.0000      -0.418227       -11.3805 
  35   2.0000      -0.411277       -11.1914 
  36   2.0000      -0.401630       -10.9289 
  37   2.0000      -0.397108       -10.8059 
  38   2.0000      -0.376960       -10.2576 
  39   2.0000      -0.369279       -10.0486 
  40   2.0000      -0.356101        -9.6900 
  41   2.0000      -0.350478        -9.5370 
  42   2.0000      -0.345853        -9.4111 
  43   2.0000      -0.331939        -9.0325 
  44   2.0000      -0.321524        -8.7491 
  45   2.0000      -0.310875        -8.4594 
  46   2.0000      -0.298673        -8.1273 
  47   2.0000      -0.270075        -7.3491 
  48   2.0000      -0.261248        -7.1089 
  49   2.0000      -0.249279        -6.7832 
  50   2.0000      -0.239956        -6.5295 
  51   0.0000       0.021564         0.5868 
  52   0.0000       0.064476         1.7545 
  53   0.0000       0.074425         2.0252 
  54   0.0000       0.093650         2.5483 
  55   0.0000       0.095477         2.5981 
  56   0.0000       0.110407         3.0043 
  57   0.0000       0.119149         3.2422 
  58   0.0000       0.120299         3.2735 
  59   0.0000       0.130766         3.5583 
  60   0.0000       0.138439         3.7671 
  61   0.0000       0.148795         4.0489 
  62   0.0000       0.149837         4.0773 
  63   0.0000       0.152608         4.1527 
  64   0.0000       0.157602         4.2886 
  65   0.0000       0.171320         4.6619 
  66   0.0000       0.174659         4.7527 
  67   0.0000       0.176793         4.8108 
  68   0.0000       0.185646         5.0517 
  69   0.0000       0.195483         5.3194 
  70   0.0000       0.197482         5.3738 
  71   0.0000       0.215817         5.8727 
  72   0.0000       0.223969         6.0945 
  73   0.0000       0.226213         6.1556 
  74   0.0000       0.233429         6.3519 
  75   0.0000       0.249279         6.7832 
  76   0.0000       0.261892         7.1265 
  77   0.0000       0.274044         7.4571 
  78   0.0000       0.279099         7.5947 
  79   0.0000       0.289700         7.8831 
  80   0.0000       0.294296         8.0082 
  81   0.0000       0.526759        14.3338 
  82   0.0000       0.541442        14.7334 
  83   0.0000       0.548017        14.9123 
  84   0.0000       0.551327        15.0024 
  85   0.0000       0.557820        15.1791 
  86   0.0000       0.566689        15.4204 
  87   0.0000       0.573088        15.5945 
  88   0.0000       0.583189        15.8694 
  89   0.0000       0.589949        16.0533 
  90   0.0000       0.590796        16.0764 
  91   0.0000       0.596058        16.2196 
  92   0.0000       0.612797        16.6751 
  93   0.0000       0.636143        17.3103 
  94   0.0000       0.640993        17.4423 
  95   0.0000       0.644509        17.5380 
  96   0.0000       0.650861        17.7108 
  97   0.0000       0.672620        18.3029 
  98   0.0000       0.677274        18.4296 
  99   0.0000       0.689500        18.7622 
 100   0.0000       0.726121        19.7588 
 101   0.0000       0.759449        20.6657 
 102   0.0000       0.791332        21.5332 
 103   0.0000       0.795998        21.6602 
 104   0.0000       0.818155        22.2631 
 105   0.0000       0.823718        22.4145 
 106   0.0000       0.830101        22.5882 
 107   0.0000       0.847103        23.0509 
 108   0.0000       0.867155        23.5965 
 109   0.0000       0.869546        23.6615 
 110   0.0000       0.878710        23.9109 
 111   0.0000       0.884684        24.0735 
 112   0.0000       0.894625        24.3440 
 113   0.0000       0.906453        24.6659 
 114   0.0000       0.915602        24.9148 
 115   0.0000       0.924737        25.1634 
 116   0.0000       0.933527        25.4026 
 117   0.0000       0.948767        25.8173 
 118   0.0000       0.955088        25.9893 
 119   0.0000       0.961617        26.1669 
 120   0.0000       0.971993        26.4493 
 121   0.0000       0.975286        26.5389 
 122   0.0000       0.991181        26.9714 
 123   0.0000       1.011105        27.5136 
 124   0.0000       1.033933        28.1347 
 125   0.0000       1.051776        28.6203 
 126   0.0000       1.071992        29.1704 
 127   0.0000       1.097526        29.8652 
 128   0.0000       1.122525        30.5455 
 129   0.0000       1.155350        31.4387 
 130   0.0000       1.185585        32.2614 
 131   0.0000       1.205695        32.8086 
 132   0.0000       1.276536        34.7363 
 133   0.0000       1.295170        35.2434 
 134   0.0000       1.327006        36.1097 
 135   0.0000       1.359049        36.9816 
 136   0.0000       1.374446        37.4006 
 137   0.0000       1.390453        37.8362 
 138   0.0000       1.428311        38.8663 
 139   0.0000       1.460587        39.7446 
 140   0.0000       1.497982        40.7622 
 141   0.0000       1.545581        42.0574 
 142   0.0000       1.612047        43.8660 
 143   0.0000       1.633930        44.4615 
 144   0.0000       1.684126        45.8274 
 145   0.0000       1.874013        50.9945 
 146   0.0000       1.946010        52.9536 
 147   0.0000       2.031153        55.2705 
 148   0.0000       2.087275        56.7976 

                    ********************************
                    * MULLIKEN POPULATION ANALYSIS *
                    ********************************

-----------------------
MULLIKEN ATOMIC CHARGES
-----------------------
   0 C :    0.286300
   1 C :   -0.274160
   2 C :   -0.301791
   3 C :   -0.000013
   4 O :   -0.513379
   5 H :    0.142623
   6 H :    0.152131
   7 H :    0.162671
   8 H :    0.140040
   9 H :    0.171790
  10 H :    0.148314
  11 H :    0.139630
  12 C :   -0.019594
  13 H :    0.125854
  14 H :    0.138479
  15 O :   -0.509801
  16 C :    0.071871
  17 C :    0.078899
  18 C :   -0.317993
  19 C :   -0.008986
  20 O :   -0.499758
  21 H :    0.163741
  22 H :    0.172113
  23 O :   -0.592008
  24 H :    0.157775
  25 H :    0.146070
  26 H :    0.148075
  27 H :    0.146355
  28 H :    0.344753
Sum of atomic charges:   -0.0000000

--------------------------------
MULLIKEN REDUCED ORBITAL CHARGES
--------------------------------
  0 C s       :     3.224890  s :     3.224890
      pz      :     0.801394  p :     2.488810
      px      :     0.693578
      py      :     0.993839
  1 C s       :     3.312014  s :     3.312014
      pz      :     0.991456  p :     2.962146
      px      :     1.028743
      py      :     0.941946
  2 C s       :     3.316178  s :     3.316178
      pz      :     0.904649  p :     2.985613
      px      :     1.091549
      py      :     0.989416
  3 C s       :     3.259339  s :     3.259339
      pz      :     0.941976  p :     2.740674
      px      :     1.053068
      py      :     0.745630
  4 O s       :     3.938903  s :     3.938903
      pz      :     1.318977  p :     4.574476
      px      :     1.731999
      py      :     1.523500
  5 H s       :     0.857377  s :     0.857377
  6 H s       :     0.847869  s :     0.847869
  7 H s       :     0.837329  s :     0.837329
  8 H s       :     0.859960  s :     0.859960
  9 H s       :     0.828210  s :     0.828210
 10 H s       :     0.851686  s :     0.851686
 11 H s       :     0.860370  s :     0.860370
 12 C s       :     3.279055  s :     3.279055
      pz      :     1.052233  p :     2.740539
      px      :     0.882830
      py      :     0.805476
 13 H s       :     0.874146  s :     0.874146
 14 H s       :     0.861521  s :     0.861521
 15 O s       :     3.958031  s :     3.958031
      pz      :     1.864113  p :     4.551771
      px      :     1.237766
      py      :     1.449891
 16 C s       :     3.277819  s :     3.277819
      pz      :     0.943667  p :     2.650310
      px      :     0.883802
      py      :     0.822840
 17 C s       :     3.290195  s :     3.290195
      pz      :     0.896092  p :     2.630906
      px      :     0.989479
      py      :     0.745335
 18 C s       :     3.327408  s :     3.327408
      pz      :     0.928552  p :     2.990585
      px      :     1.095806
      py      :     0.966226
 19 C s       :     3.262386  s :     3.262386
      pz      :     0.850092  p :     2.746599
      px      :     1.050509
      py      :     0.845998
 20 O s       :     3.947733  s :     3.947733
      pz      :     1.277431  p :     4.552024
      px      :     1.737817
      py      :     1.536776
 21 H s       :     0.836259  s :     0.836259
 22 H s       :     0.827887  s :     0.827887
 23 O s       :     3.954224  s :     3.954224
      pz      :     1.735334  p :     4.637784
      px      :     1.343804
      py      :     1.558646
 24 H s       :     0.842225  s :     0.842225
 25 H s       :     0.853930  s :     0.853930
 26 H s       :     0.851925  s :     0.851925
 27 H s       :     0.853645  s :     0.853645
 28 H s       :     0.655247  s :     0.655247


                     *******************************
                     * LOEWDIN POPULATION ANALYSIS *
                     *******************************

----------------------
LOEWDIN ATOMIC CHARGES
----------------------
   0 C :    0.183009
   1 C :   -0.214819
   2 C :   -0.216853
   3 C :   -0.028430
   4 O :   -0.325425
   5 H :    0.099627
   6 H :    0.118673
   7 H :    0.127792
   8 H :    0.112629
   9 H :    0.123446
  10 H :    0.105968
  11 H :    0.100586
  12 C :   -0.052047
  13 H :    0.097085
  14 H :    0.099533
  15 O :   -0.354334
  16 C :    0.027209
  17 C :    0.043014
  18 C :   -0.236504
  19 C :   -0.031227
  20 O :   -0.313318
  21 H :    0.120693
  22 H :    0.126915
  23 O :   -0.436013
  24 H :    0.122955
  25 H :    0.110113
  26 H :    0.104658
  27 H :    0.104647
  28 H :    0.280420

-------------------------------
LOEWDIN REDUCED ORBITAL CHARGES
-------------------------------
  0 C s       :     2.980678  s :     2.980678
      pz      :     0.917993  p :     2.836313
      px      :     0.832285
      py      :     1.086036
  1 C s       :     2.974907  s :     2.974907
      pz      :     1.080864  p :     3.239913
      px      :     1.105488
      py      :     1.053561
  2 C s       :     2.972883  s :     2.972883
      pz      :     1.029800  p :     3.243970
      px      :     1.135354
      py      :     1.078816
  3 C s       :     2.983586  s :     2.983586
      pz      :     1.039465  p :     3.044844
      px      :     1.117411
      py      :     0.887968
  4 O s       :     3.608561  s :     3.608561
      pz      :     1.383321  p :     4.716864
      px      :     1.764932
      py      :     1.568611
  5 H s       :     0.900373  s :     0.900373
  6 H s       :     0.881327  s :     0.881327
  7 H s       :     0.872208  s :     0.872208
  8 H s       :     0.887371  s :     0.887371
  9 H s       :     0.876554  s :     0.876554
 10 H s       :     0.894032  s :     0.894032
 11 H s       :     0.899414  s :     0.899414
 12 C s       :     3.002259  s :     3.002259
      pz      :     1.129200  p :     3.049788
      px      :     1.015343
      py      :     0.905246
 13 H s       :     0.902915  s :     0.902915
 14 H s       :     0.900467  s :     0.900467
 15 O s       :     3.661417  s :     3.661417
      pz      :     1.890262  p :     4.692917
      px      :     1.302901
      py      :     1.499754
 16 C s       :     2.965411  s :     2.965411
      pz      :     1.005303  p :     3.007380
      px      :     1.026507
      py      :     0.975570
 17 C s       :     2.973676  s :     2.973676
      pz      :     1.029164  p :     2.983310
      px      :     1.056860
      py      :     0.897286
 18 C s       :     2.981863  s :     2.981863
      pz      :     1.049807  p :     3.254642
      px      :     1.132693
      py      :     1.072143
 19 C s       :     2.981648  s :     2.981648
      pz      :     0.960250  p :     3.049579
      px      :     1.112202
      py      :     0.977127
 20 O s       :     3.604976  s :     3.604976
      pz      :     1.346252  p :     4.708343
      px      :     1.771280
      py      :     1.590811
 21 H s       :     0.879307  s :     0.879307
 22 H s       :     0.873085  s :     0.873085
 23 O s       :     3.694081  s :     3.694081
      pz      :     1.758688  p :     4.741932
      px      :     1.385358
      py      :     1.597887
 24 H s       :     0.877045  s :     0.877045
 25 H s       :     0.889887  s :     0.889887
 26 H s       :     0.895342  s :     0.895342
 27 H s       :     0.895353  s :     0.895353
 28 H s       :     0.719580  s :     0.719580


                      *****************************
                      * MAYER POPULATION ANALYSIS *
                      *****************************

  NA   - Mulliken gross atomic population
  ZA   - Total nuclear charge
  QA   - Mulliken gross atomic charge
  VA   - Mayer's total valence
  BVA  - Mayer's bonded valence
  FA   - Mayer's free valence

  ATOM       NA         ZA         QA         VA         BVA        FA
  0 C      5.7137     6.0000     0.2863     3.6675     3.6675    -0.0000
  1 C      6.2742     6.0000    -0.2742     3.7361     3.7361    -0.0000
  2 C      6.3018     6.0000    -0.3018     3.7652     3.7652    -0.0000
  3 C      6.0000     6.0000    -0.0000     3.6600     3.6600    -0.0000
  4 O      8.5134     8.0000    -0.5134     1.7899     1.7899    -0.0000
  5 H      0.8574     1.0000     0.1426     0.9310     0.9310    -0.0000
  6 H      0.8479     1.0000     0.1521     0.9297     0.9297    -0.0000
  7 H      0.8373     1.0000     0.1627     0.9383     0.9383    -0.0000
  8 H      0.8600     1.0000     0.1400     0.9365     0.9365    -0.0000
  9 H      0.8282     1.0000     0.1718     0.9303     0.9303    -0.0000
 10 H      0.8517     1.0000     0.1483     0.9267     0.9267     0.0000
 11 H      0.8604     1.0000     0.1396     0.9286     0.9286    -0.0000
 12 C      6.0196     6.0000    -0.0196     3.6462     3.6462    -0.0000
 13 H      0.8741     1.0000     0.1259     0.9410     0.9410    -0.0000
 14 H      0.8615     1.0000     0.1385     0.9326     0.9326    -0.0000
 15 O      8.5098     8.0000    -0.5098     1.7964     1.7964    -0.0000
 16 C      5.9281     6.0000     0.0719     3.5827     3.5827    -0.0000
 17 C      5.9211     6.0000     0.0789     3.6348     3.6348    -0.0000
 18 C      6.3180     6.0000    -0.3180     3.7157     3.7157    -0.0000
 19 C      6.0090     6.0000    -0.0090     3.6528     3.6528    -0.0000
 20 O      8.4998     8.0000    -0.4998     1.7810     1.7810    -0.0000
 21 H      0.8363     1.0000     0.1637     0.9337     0.9337    -0.0000
 22 H      0.8279     1.0000     0.1721     0.9282     0.9282     0.0000
 23 O      8.5920     8.0000    -0.5920     1.7663     1.7663    -0.0000
 24 H      0.8422     1.0000     0.1578     0.9373     0.9373    -0.0000
 25 H      0.8539     1.0000     0.1461     0.9410     0.9410    -0.0000
 26 H      0.8519     1.0000     0.1481     0.9247     0.9247     0.0000
 27 H      0.8536     1.0000     0.1464     0.9277     0.9277     0.0000
 28 H      0.6552     1.0000     0.3448     0.8541     0.8541    -0.0000

  Mayer bond orders larger than 0.100000
B(  0-C ,  1-C ) :   0.9457 B(  0-C ,  4-O ) :   0.8994 B(  0-C ,  5-H ) :   0.9184 
B(  0-C , 15-O ) :   0.8628 B(  1-C ,  2-C ) :   0.9585 B(  1-C ,  6-H ) :   0.9360 
B(  1-C ,  7-H ) :   0.9335 B(  2-C ,  3-C ) :   0.9548 B(  2-C ,  8-H ) :   0.9448 
B(  2-C ,  9-H ) :   0.9428 B(  3-C ,  4-O ) :   0.8388 B(  3-C , 10-H ) :   0.9349 
B(  3-C , 11-H ) :   0.9394 B( 12-C , 13-H ) :   0.8999 B( 12-C , 14-H ) :   0.9126 
B( 12-C , 15-O ) :   0.8638 B( 12-C , 16-C ) :   0.9037 B( 16-C , 17-C ) :   0.8783 
B( 16-C , 20-O ) :   0.8708 B( 16-C , 21-H ) :   0.9302 B( 17-C , 18-C ) :   0.9166 
B( 17-C , 22-H ) :   0.9318 B( 17-C , 23-O ) :   0.8881 B( 18-C , 19-C ) :   0.9298 
B( 18-C , 24-H ) :   0.9429 B( 18-C , 25-H ) :   0.9406 B( 19-C , 20-O ) :   0.8490 
B( 19-C , 26-H ) :   0.9312 B( 19-C , 27-H ) :   0.9380 B( 23-O , 28-H ) :   0.8006 


-------
TIMINGS
-------

Total SCF time: 0 days 0 hours 3 min 41 sec 

Total time                  ....     221.195 sec
Sum of individual times     ....     195.660 sec  ( 88.5%)

Fock matrix formation       ....     187.844 sec  ( 84.9%)
  XC integration            ....      30.742 sec  ( 16.4% of F)
    Basis function eval.    ....       4.323 sec  ( 14.1% of XC)
    Density eval.           ....       1.971 sec  (  6.4% of XC)
    XC-Functional eval.     ....       1.003 sec  (  3.3% of XC)
    XC-Potential eval.      ....       2.436 sec  (  7.9% of XC)
Diagonalization             ....       0.153 sec  (  0.1%)
Density matrix formation    ....       0.009 sec  (  0.0%)
Population analysis         ....       0.395 sec  (  0.2%)
Initial guess               ....       1.269 sec  (  0.6%)
Orbital Transformation      ....       0.000 sec  (  0.0%)
Orbital Orthonormalization  ....       0.000 sec  (  0.0%)
DIIS solution               ....       0.204 sec  (  0.1%)
SOSCF solution              ....       0.225 sec  (  0.1%)
Grid generation             ....       5.562 sec  (  2.5%)

-------------------------   --------------------
FINAL SINGLE POINT ENERGY      -652.830923748986
-------------------------   --------------------

------------------------------------------------------------------------------
                         ORCA SCF GRADIENT CALCULATION
------------------------------------------------------------------------------

Gradient of the Kohn-Sham DFT energy:
Kohn-Sham wavefunction type      ... RKS
Hartree-Fock exchange scaling    ...    0.200
Number of operators              ...    1
Number of atoms                  ...   29
Basis set dimensions             ...  149
Integral neglect threshold       ... 2.5e-11
Integral primitive cutoff        ... 2.5e-12

Nuclear repulsion gradient       ... done
One Electron Gradient            ... done
Pre-screening matrix             ... done
Starting the two electron gradient:
Two electron gradient done
Exchange-correlation gradient    ... done

------------------
CARTESIAN GRADIENT
------------------

   1   C   :    0.022981609    0.011571433   -0.013165427
   2   C   :    0.015797383   -0.005018949   -0.004490848
   3   C   :    0.000049609   -0.000713653   -0.002123312
   4   C   :    0.000384719   -0.004365785   -0.003226076
   5   O   :    0.007788246   -0.003709137    0.014521182
   6   H   :    0.003154205    0.002493991   -0.000878808
   7   H   :    0.000935989    0.003897881    0.000115200
   8   H   :    0.000518480    0.002138677   -0.001200852
   9   H   :   -0.000870361    0.000709278    0.000102734
  10   H   :   -0.000644556    0.001866015    0.001153951
  11   H   :   -0.000375833    0.000719200    0.001392910
  12   H   :   -0.000516523    0.000951952    0.000527036
  13   C   :   -0.014153091   -0.019190400    0.001183571
  14   H   :   -0.003479238   -0.003456410    0.002389755
  15   H   :   -0.007516152   -0.006211113   -0.000500291
  16   O   :   -0.011364410    0.025131593    0.007206826
  17   C   :   -0.023946115   -0.018974540    0.002480891
  18   C   :   -0.027064073    0.027004780   -0.002105542
  19   C   :    0.005526158   -0.001476964   -0.001726820
  20   C   :   -0.000037896    0.002442290   -0.002717051
  21   O   :    0.001764229    0.003844651    0.003691164
  22   H   :    0.002332504   -0.000180212   -0.000455380
  23   H   :   -0.006026497    0.009079296    0.005097018
  24   O   :   -0.032960022   -0.019734387   -0.033015789
  25   H   :   -0.001032408   -0.000054615    0.001280769
  26   H   :    0.001276537    0.001075370    0.001001512
  27   H   :    0.000906726    0.000089147    0.000641515
  28   H   :    0.000506730    0.000044401   -0.000308957
  29   H   :    0.066064051   -0.009973792    0.023129121

Difference to translation invariance:
           :    0.0000000000   -0.0000000000    0.0000000000

Norm of the cartesian gradient     ...    0.1149669456
RMS gradient                       ...    0.0123257503
MAX gradient                       ...    0.0660640513

-------
TIMINGS
-------

Total SCF gradient time            ...       42.159 sec

One electron gradient       ....       0.503 sec  (  1.2%)
Prescreening matrices       ....       0.092 sec  (  0.2%)
Two electron gradient       ....      19.765 sec  ( 46.9%)
XC gradient                 ....      11.988 sec  ( 28.4%)
------------------------------------------------------------------------------
                         ORCA GEOMETRY RELAXATION STEP
------------------------------------------------------------------------------

Reading the OPT-File                    .... done
Getting information on internals        .... done
Copying old internal coords+grads       .... done
Making the new internal coordinates     .... (new redundants).... done
Validating the new internal coordinates .... (new redundants).... done
Calculating the B-matrix                .... done
Calculating the G,G- and P matrices     .... done
Transforming gradient to internals      .... done
Projecting the internal gradient        .... done
Number of atoms                         ....  29
Number of internal coordinates          .... 172
Current Energy                          ....  -652.830923749 Eh
Current gradient norm                   ....     0.114966946 Eh/bohr
Maximum allowed component of the step   ....  0.300
Current trust radius                    ....  0.300
Evaluating the initial hessian          ....  (Almloef) done
Projecting the Hessian                  .... done
Forming the augmented Hessian           .... done
Diagonalizing the augmented Hessian     .... done
Last element of RFO vector              ....  0.936272238
Lowest eigenvalues of augmented Hessian:
 -0.042484172  0.007871118  0.032952998  0.033084114  0.036588050
Length of the computed step             ....  0.375184938
Warning: the length of the step is outside the trust region - taking restricted step instead
The input lambda is                     ....    -0.042484
   iter:   1  x=   -0.085123  g=    1.190549 f(x)=     0.050764
   iter:   2  x=   -0.106877  g=    0.643269 f(x)=     0.013994
   iter:   3  x=   -0.109787  g=    0.513879 f(x)=     0.001495
   iter:   4  x=   -0.109828  g=    0.499828 f(x)=     0.000021
   iter:   5  x=   -0.109828  g=    0.499633 f(x)=     0.000000
   iter:   6  x=   -0.109828  g=    0.499633 f(x)=     0.000000
The output lambda is                    ....    -0.109828 (6 iterations)
The final length of the internal step   ....  0.300000000
Converting the step to cartesian space:
 Initial RMS(Int)=    0.0228747855
Transforming coordinates:
 Iter   0:  RMS(Cart)=    0.0932819918 RMS(Int)=    0.4780712055
 Iter   1:  RMS(Cart)=    0.0019085397 RMS(Int)=    0.0008136104
 Iter   2:  RMS(Cart)=    0.0001238847 RMS(Int)=    0.0000654779
[...]
  29   2.0000      -0.487412       -13.2632 
  30   2.0000      -0.468594       -12.7511 
  31   2.0000      -0.455954       -12.4071 
  32   2.0000      -0.439484       -11.9590 
  33   2.0000      -0.437582       -11.9072 
  34   2.0000      -0.426635       -11.6093 
  35   2.0000      -0.412640       -11.2285 
  36   2.0000      -0.402714       -10.9584 
  37   2.0000      -0.397364       -10.8128 
  38   2.0000      -0.376738       -10.2516 
  39   2.0000      -0.369025       -10.0417 
  40   2.0000      -0.354727        -9.6526 
  41   2.0000      -0.351332        -9.5602 
  42   2.0000      -0.342440        -9.3183 
  43   2.0000      -0.331624        -9.0240 
  44   2.0000      -0.321207        -8.7405 
  45   2.0000      -0.314600        -8.5607 
  46   2.0000      -0.296996        -8.0817 
  47   2.0000      -0.271470        -7.3871 
  48   2.0000      -0.264179        -7.1887 
  49   2.0000      -0.250368        -6.8129 
  50   2.0000      -0.239525        -6.5178 
  51   0.0000       0.051503         1.4015 
  52   0.0000       0.078594         2.1387 
  53   0.0000       0.090646         2.4666 
  54   0.0000       0.097857         2.6628 
  55   0.0000       0.102932         2.8009 
  56   0.0000       0.117289         3.1916 
  57   0.0000       0.124293         3.3822 
  58   0.0000       0.131946         3.5904 
  59   0.0000       0.142500         3.8776 
  60   0.0000       0.151085         4.1112 
  61   0.0000       0.154875         4.2144 
  62   0.0000       0.156664         4.2630 
  63   0.0000       0.159718         4.3461 
  64   0.0000       0.162725         4.4280 
  65   0.0000       0.174753         4.7553 
  66   0.0000       0.184223         5.0130 
  67   0.0000       0.190658         5.1881 
  68   0.0000       0.195362         5.3161 
  69   0.0000       0.204154         5.5553 
  70   0.0000       0.206926         5.6307 
  71   0.0000       0.224039         6.0964 
  72   0.0000       0.230263         6.2658 
  73   0.0000       0.238608         6.4928 
  74   0.0000       0.251665         6.8482 
  75   0.0000       0.262248         7.1361 
  76   0.0000       0.268388         7.3032 
  77   0.0000       0.285387         7.7658 
  78   0.0000       0.293862         7.9964 
  79   0.0000       0.300379         8.1737 
  80   0.0000       0.309772         8.4293 
  81   0.0000       0.531306        14.4576 
  82   0.0000       0.538401        14.6506 
  83   0.0000       0.551619        15.0103 
  84   0.0000       0.552504        15.0344 
  85   0.0000       0.556847        15.1526 
  86   0.0000       0.568263        15.4632 
  87   0.0000       0.578602        15.7445 
  88   0.0000       0.588085        16.0026 
  89   0.0000       0.594827        16.1861 
  90   0.0000       0.598506        16.2862 
  91   0.0000       0.603423        16.4200 
  92   0.0000       0.624874        17.0037 
  93   0.0000       0.641352        17.4521 
  94   0.0000       0.643602        17.5133 
  95   0.0000       0.649808        17.6822 
  96   0.0000       0.661753        18.0072 
  97   0.0000       0.669369        18.2145 
  98   0.0000       0.683639        18.6028 
  99   0.0000       0.699766        19.0416 
 100   0.0000       0.734659        19.9911 
 101   0.0000       0.764855        20.8128 
 102   0.0000       0.800828        21.7916 
 103   0.0000       0.816712        22.2239 
 104   0.0000       0.820360        22.3231 
 105   0.0000       0.834049        22.6956 
 106   0.0000       0.842281        22.9196 
 107   0.0000       0.849783        23.1238 
 108   0.0000       0.863221        23.4894 
 109   0.0000       0.876395        23.8479 
 110   0.0000       0.879901        23.9433 
 111   0.0000       0.885045        24.0833 
 112   0.0000       0.895842        24.3771 
 113   0.0000       0.908188        24.7131 
 114   0.0000       0.920226        25.0406 
 115   0.0000       0.929982        25.3061 
 116   0.0000       0.933958        25.4143 
 117   0.0000       0.949683        25.8422 
 118   0.0000       0.954992        25.9866 
 119   0.0000       0.965821        26.2813 
 120   0.0000       0.974758        26.5245 
 121   0.0000       0.980032        26.6680 
 122   0.0000       0.992301        27.0019 
 123   0.0000       1.023897        27.8617 
 124   0.0000       1.026021        27.9194 
 125   0.0000       1.059622        28.8338 
 126   0.0000       1.066646        29.0249 
 127   0.0000       1.103083        30.0164 
 128   0.0000       1.133923        30.8556 
 129   0.0000       1.176808        32.0226 
 130   0.0000       1.199443        32.6385 
 131   0.0000       1.222955        33.2783 
 132   0.0000       1.292343        35.1664 
 133   0.0000       1.309817        35.6419 
 134   0.0000       1.329949        36.1897 
 135   0.0000       1.355361        36.8813 
 136   0.0000       1.383510        37.6472 
 137   0.0000       1.400142        38.0998 
 138   0.0000       1.444828        39.3158 
 139   0.0000       1.484400        40.3926 
 140   0.0000       1.513826        41.1933 
 141   0.0000       1.570658        42.7398 
 142   0.0000       1.640878        44.6506 
 143   0.0000       1.672183        45.5024 
 144   0.0000       1.744130        47.4602 
 145   0.0000       1.920538        52.2605 
 146   0.0000       1.987931        54.0943 
 147   0.0000       2.036501        55.4160 
 148   0.0000       2.157998        58.7221 

                    ********************************
                    * MULLIKEN POPULATION ANALYSIS *
                    ********************************

-----------------------
MULLIKEN ATOMIC CHARGES
-----------------------
   0 C :    0.286433
   1 C :   -0.260949
   2 C :   -0.299341
   3 C :   -0.002138
   4 O :   -0.516972
   5 H :    0.137114
   6 H :    0.142751
   7 H :    0.158652
   8 H :    0.138423
   9 H :    0.171202
  10 H :    0.145910
  11 H :    0.140261
  12 C :   -0.006066
  13 H :    0.129462
  14 H :    0.136394
  15 O :   -0.509596
  16 C :    0.093931
  17 C :    0.082163
  18 C :   -0.324950
  19 C :   -0.007082
  20 O :   -0.505337
  21 H :    0.160080
  22 H :    0.168055
  23 O :   -0.600884
  24 H :    0.157216
  25 H :    0.135744
  26 H :    0.144600
  27 H :    0.147406
  28 H :    0.357521
Sum of atomic charges:   -0.0000000

--------------------------------
MULLIKEN REDUCED ORBITAL CHARGES
--------------------------------
  0 C s       :     3.188096  s :     3.188096
      pz      :     0.822563  p :     2.525471
      px      :     0.684228
      py      :     1.018680
  1 C s       :     3.305139  s :     3.305139
      pz      :     0.979949  p :     2.955811
      px      :     1.047576
      py      :     0.928285
  2 C s       :     3.314533  s :     3.314533
      pz      :     0.910028  p :     2.984808
      px      :     1.086397
      py      :     0.988383
  3 C s       :     3.261007  s :     3.261007
      pz      :     0.937364  p :     2.741131
      px      :     1.059595
      py      :     0.744172
  4 O s       :     3.935125  s :     3.935125
      pz      :     1.327808  p :     4.581847
      px      :     1.728798
      py      :     1.525241
  5 H s       :     0.862886  s :     0.862886
  6 H s       :     0.857249  s :     0.857249
  7 H s       :     0.841348  s :     0.841348
  8 H s       :     0.861577  s :     0.861577
  9 H s       :     0.828798  s :     0.828798
 10 H s       :     0.854090  s :     0.854090
 11 H s       :     0.859739  s :     0.859739
 12 C s       :     3.247901  s :     3.247901
      pz      :     1.073334  p :     2.758165
      px      :     0.900721
      py      :     0.784110
 13 H s       :     0.870538  s :     0.870538
 14 H s       :     0.863606  s :     0.863606
 15 O s       :     3.938653  s :     3.938653
      pz      :     1.839570  p :     4.570943
      px      :     1.260251
      py      :     1.471122
 16 C s       :     3.260448  s :     3.260448
      pz      :     0.930334  p :     2.645621
      px      :     0.882334
      py      :     0.832954
 17 C s       :     3.250178  s :     3.250178
      pz      :     0.906841  p :     2.667659
      px      :     1.014565
      py      :     0.746253
 18 C s       :     3.325378  s :     3.325378
      pz      :     0.938821  p :     2.999572
      px      :     1.088063
      py      :     0.972688
 19 C s       :     3.263065  s :     3.263065
      pz      :     0.867919  p :     2.744017
      px      :     1.023943
      py      :     0.852155
 20 O s       :     3.948709  s :     3.948709
      pz      :     1.318593  p :     4.556629
      px      :     1.700053
      py      :     1.537982
 21 H s       :     0.839920  s :     0.839920
 22 H s       :     0.831945  s :     0.831945
 23 O s       :     3.920768  s :     3.920768
      pz      :     1.657696  p :     4.680115
      px      :     1.556402
      py      :     1.466017
 24 H s       :     0.842784  s :     0.842784
 25 H s       :     0.864256  s :     0.864256
 26 H s       :     0.855400  s :     0.855400
 27 H s       :     0.852594  s :     0.852594
 28 H s       :     0.642479  s :     0.642479


                     *******************************
                     * LOEWDIN POPULATION ANALYSIS *
                     *******************************

----------------------
LOEWDIN ATOMIC CHARGES
----------------------
   0 C :    0.170693
   1 C :   -0.215000
   2 C :   -0.216071
   3 C :   -0.027520
   4 O :   -0.334224
   5 H :    0.093564
   6 H :    0.112909
   7 H :    0.125106
   8 H :    0.112227
   9 H :    0.123570
  10 H :    0.104819
  11 H :    0.101198
  12 C :   -0.050956
  13 H :    0.097078
  14 H :    0.096345
  15 O :   -0.311354
  16 C :    0.022117
  17 C :    0.034780
  18 C :   -0.241250
  19 C :   -0.028947
  20 O :   -0.313578
  21 H :    0.118458
  22 H :    0.119814
  23 O :   -0.408169
  24 H :    0.122262
  25 H :    0.104785
  26 H :    0.103394
  27 H :    0.105196
  28 H :    0.278754

-------------------------------
LOEWDIN REDUCED ORBITAL CHARGES
-------------------------------
  0 C s       :     2.952445  s :     2.952445
      pz      :     0.931875  p :     2.876862
      px      :     0.849513
      py      :     1.095473
  1 C s       :     2.975291  s :     2.975291
      pz      :     1.076840  p :     3.239708
      px      :     1.114716
      py      :     1.048153
  2 C s       :     2.970692  s :     2.970692
      pz      :     1.033161  p :     3.245379
      px      :     1.133735
      py      :     1.078483
  3 C s       :     2.984264  s :     2.984264
      pz      :     1.034909  p :     3.043256
      px      :     1.124081
      py      :     0.884266
  4 O s       :     3.602063  s :     3.602063
      pz      :     1.394328  p :     4.732160
      px      :     1.766296
      py      :     1.571537
  5 H s       :     0.906436  s :     0.906436
  6 H s       :     0.887091  s :     0.887091
  7 H s       :     0.874894  s :     0.874894
  8 H s       :     0.887773  s :     0.887773
  9 H s       :     0.876430  s :     0.876430
 10 H s       :     0.895181  s :     0.895181
 11 H s       :     0.898802  s :     0.898802
 12 C s       :     2.977546  s :     2.977546
      pz      :     1.131170  p :     3.073410
      px      :     1.027013
      py      :     0.915227
 13 H s       :     0.902922  s :     0.902922
 14 H s       :     0.903655  s :     0.903655
 15 O s       :     3.584733  s :     3.584733
      pz      :     1.868418  p :     4.726621
      px      :     1.332182
      py      :     1.526021
 16 C s       :     2.959973  s :     2.959973
      pz      :     1.000400  p :     3.017911
      px      :     1.036338
      py      :     0.981173
 17 C s       :     2.951229  s :     2.951229
      pz      :     1.030142  p :     3.013991
      px      :     1.074330
      py      :     0.909520
 18 C s       :     2.983166  s :     2.983166
      pz      :     1.054955  p :     3.258084
      px      :     1.128198
      py      :     1.074931
 19 C s       :     2.981135  s :     2.981135
      pz      :     0.973569  p :     3.047812
      px      :     1.091340
      py      :     0.982903
 20 O s       :     3.603347  s :     3.603347
      pz      :     1.384883  p :     4.710231
      px      :     1.735537
      py      :     1.589811
 21 H s       :     0.881542  s :     0.881542
 22 H s       :     0.880186  s :     0.880186
 23 O s       :     3.609137  s :     3.609137
      pz      :     1.691805  p :     4.799032
      px      :     1.595425
      py      :     1.511801
 24 H s       :     0.877738  s :     0.877738
 25 H s       :     0.895215  s :     0.895215
 26 H s       :     0.896606  s :     0.896606
 27 H s       :     0.894804  s :     0.894804
 28 H s       :     0.721246  s :     0.721246


                      *****************************
                      * MAYER POPULATION ANALYSIS *
                      *****************************

  NA   - Mulliken gross atomic population
  ZA   - Total nuclear charge
  QA   - Mulliken gross atomic charge
  VA   - Mayer's total valence
  BVA  - Mayer's bonded valence
  FA   - Mayer's free valence

  ATOM       NA         ZA         QA         VA         BVA        FA
  0 C      5.7136     6.0000     0.2864     3.6798     3.6798    -0.0000
  1 C      6.2609     6.0000    -0.2609     3.7364     3.7364    -0.0000
  2 C      6.2993     6.0000    -0.2993     3.7672     3.7672    -0.0000
  3 C      6.0021     6.0000    -0.0021     3.6637     3.6637     0.0000
  4 O      8.5170     8.0000    -0.5170     1.7707     1.7707    -0.0000
  5 H      0.8629     1.0000     0.1371     0.9359     0.9359    -0.0000
  6 H      0.8572     1.0000     0.1428     0.9330     0.9330     0.0000
  7 H      0.8413     1.0000     0.1587     0.9408     0.9408     0.0000
  8 H      0.8616     1.0000     0.1384     0.9371     0.9371     0.0000
  9 H      0.8288     1.0000     0.1712     0.9319     0.9319    -0.0000
 10 H      0.8541     1.0000     0.1459     0.9271     0.9271    -0.0000
 11 H      0.8597     1.0000     0.1403     0.9293     0.9293    -0.0000
 12 C      6.0061     6.0000    -0.0061     3.6059     3.6059    -0.0000
 13 H      0.8705     1.0000     0.1295     0.9421     0.9421    -0.0000
 14 H      0.8636     1.0000     0.1364     0.9362     0.9362    -0.0000
 15 O      8.5096     8.0000    -0.5096     1.7539     1.7539     0.0000
 16 C      5.9061     6.0000     0.0939     3.5696     3.5696    -0.0000
 17 C      5.9178     6.0000     0.0822     3.6486     3.6486    -0.0000
 18 C      6.3249     6.0000    -0.3249     3.7258     3.7258     0.0000
 19 C      6.0071     6.0000    -0.0071     3.6647     3.6647    -0.0000
 20 O      8.5053     8.0000    -0.5053     1.7833     1.7833    -0.0000
 21 H      0.8399     1.0000     0.1601     0.9348     0.9348    -0.0000
 22 H      0.8319     1.0000     0.1681     0.9252     0.9252    -0.0000
 23 O      8.6009     8.0000    -0.6009     1.7514     1.7514    -0.0000
 24 H      0.8428     1.0000     0.1572     0.9364     0.9364    -0.0000
 25 H      0.8643     1.0000     0.1357     0.9415     0.9415    -0.0000
 26 H      0.8554     1.0000     0.1446     0.9252     0.9252    -0.0000
 27 H      0.8526     1.0000     0.1474     0.9274     0.9274     0.0000
 28 H      0.6425     1.0000     0.3575     0.8363     0.8363    -0.0000

  Mayer bond orders larger than 0.100000
B(  0-C ,  1-C ) :   0.9506 B(  0-C ,  4-O ) :   0.9017 B(  0-C ,  5-H ) :   0.9173 
B(  0-C , 15-O ) :   0.8696 B(  1-C ,  2-C ) :   0.9573 B(  1-C ,  6-H ) :   0.9406 
B(  1-C ,  7-H ) :   0.9357 B(  2-C ,  3-C ) :   0.9557 B(  2-C ,  8-H ) :   0.9453 
B(  2-C ,  9-H ) :   0.9423 B(  3-C ,  4-O ) :   0.8377 B(  3-C , 10-H ) :   0.9362 
B(  3-C , 11-H ) :   0.9405 B( 12-C , 13-H ) :   0.9026 B( 12-C , 14-H ) :   0.9173 
B( 12-C , 15-O ) :   0.8374 B( 12-C , 16-C ) :   0.9059 B( 16-C , 17-C ) :   0.8744 
B( 16-C , 20-O ) :   0.8720 B( 16-C , 21-H ) :   0.9299 B( 17-C , 18-C ) :   0.9238 
B( 17-C , 22-H ) :   0.9333 B( 17-C , 23-O ) :   0.8966 B( 18-C , 19-C ) :   0.9375 
B( 18-C , 24-H ) :   0.9423 B( 18-C , 25-H ) :   0.9403 B( 19-C , 20-O ) :   0.8516 
B( 19-C , 26-H ) :   0.9319 B( 19-C , 27-H ) :   0.9380 B( 23-O , 28-H ) :   0.7976 


-------
TIMINGS
-------

Total SCF time: 0 days 0 hours 1 min 16 sec 

Total time                  ....      76.964 sec
Sum of individual times     ....      75.059 sec  ( 97.5%)

Fock matrix formation       ....      70.138 sec  ( 91.1%)
  XC integration            ....      15.511 sec  ( 22.1% of F)
    Basis function eval.    ....       2.327 sec  ( 15.0% of XC)
    Density eval.           ....       1.023 sec  (  6.6% of XC)
    XC-Functional eval.     ....       0.558 sec  (  3.6% of XC)
    XC-Potential eval.      ....       1.251 sec  (  8.1% of XC)
Diagonalization             ....       0.010 sec  (  0.0%)
Density matrix formation    ....       0.004 sec  (  0.0%)
Population analysis         ....       0.251 sec  (  0.3%)
Initial guess               ....       0.020 sec  (  0.0%)
Orbital Transformation      ....       0.000 sec  (  0.0%)
Orbital Orthonormalization  ....       0.005 sec  (  0.0%)
DIIS solution               ....       0.002 sec  (  0.0%)
SOSCF solution              ....       0.066 sec  (  0.1%)
Grid generation             ....       4.568 sec  (  5.9%)

-------------------------   --------------------
FINAL SINGLE POINT ENERGY      -652.862345486129
-------------------------   --------------------

                                *** OPTIMIZATION RUN DONE ***

                            ***************************************
                            *     ORCA property calculations      *
                            ***************************************

                                    ---------------------
                                    Active property flags
                                    ---------------------
   (+) Dipole Moment


------------------------------------------------------------------------------
                       ORCA ELECTRIC PROPERTIES CALCULATION
------------------------------------------------------------------------------

Dipole Moment Calculation                       ... on
Quadrupole Moment Calculation                   ... off
Polarizability Calculation                      ... off
GBWName                                         ... project_8053/ensemble_285_195.gbw
Electron density file                           ... project_8053/ensemble_285_195.scfp
The origin for moment calculation is the CENTER OF MASS  = (-43.716319, 48.466827 88.658821)

-------------
DIPOLE MOMENT
-------------
                                X             Y             Z
Electronic contribution:     -1.70056      -1.74988      -2.37397
Nuclear contribution   :      1.93385       1.57300       2.91487
                        -----------------------------------------
Total Dipole Moment    :      0.23329      -0.17688       0.54090
                        -----------------------------------------
Magnitude (a.u.)       :      0.61505
Magnitude (Debye)      :      1.56332



--------------------
Rotational spectrum 
--------------------
 
Rotational constants in cm-1:     0.053559     0.012675     0.011854 
Rotational constants in MHz :  1605.646823   379.995340   355.363663 

 Dipole components along the rotational axes: 
x,y,z [a.u.] :     0.132422     0.169785     0.576124 
x,y,z [Debye]:     0.336591     0.431560     1.464390 

 

Timings for individual modules:

Sum of individual times         ...     1647.553 sec (=  27.459 min)
GTO integral calculation        ...        6.593 sec (=   0.110 min)   0.4 %
SCF iterations                  ...     1294.095 sec (=  21.568 min)  78.5 %
SCF Gradient evaluation         ...      334.932 sec (=   5.582 min)  20.3 %
Geometry relaxation             ...       11.933 sec (=   0.199 min)   0.7 %
                             ****ORCA TERMINATED NORMALLY****
TOTAL RUN TIME: 0 days 0 hours 27 minutes 48 seconds 429 msec
