
                                 *****************
                                 * O   R   C   A *
                                 *****************

           --- An Ab Initio, DFT and Semiempirical electronic structure package ---

                  #######################################################
                  #                        -***-                        #
                  #          Department of theory and spectroscopy      #
                  #               Directorship: Frank Neese             #
                  #        Max Planck Institute fuer Kohlenforschung    #
                  #                Kaiser Wilhelm Platz 1               #
                  #                 D-45470 Muelheim/Ruhr               #
                  #                      Germany                        #
                  #                                                     #
                  #                  All rights reserved                #
                  #                        -***-                        #
                  #######################################################


                         Program Version 4.2.0 -  RELEASE  -


 With contributions from (in alphabetic order):
   Daniel Aravena         : Magnetic Suceptibility
   Michael Atanasov       : Ab Initio Ligand Field Theory (pilot matlab implementation)
   Alexander A. Auer      : GIAO ZORA, VPT2
   Ute Becker             : Parallelization
   Giovanni Bistoni       : ED, misc. LED, open-shell LED, HFLED
   Martin Brehm           : Molecular dynamics
   Dmytro Bykov           : SCF Hessian
   Vijay G. Chilkuri      : MRCI spin determinant printing, contributions to CSF-ICE
   Dipayan Datta          : RHF DLPNO-CCSD density
   Achintya Kumar Dutta   : EOM-CC, STEOM-CC
   Dmitry Ganyushin       : Spin-Orbit,Spin-Spin,Magnetic field MRCI
   Miquel Garcia          : C-PCM Hessian, Gaussian charge scheme
   Yang Guo               : DLPNO-NEVPT2, CIM, IAO-localization
   Andreas Hansen         : Spin unrestricted coupled pair/coupled cluster methods
   Benjamin Helmich-Paris : CASSCF linear response (MC-RPA)
   Lee Huntington         : MR-EOM, pCC
   Robert Izsak           : Overlap fitted RIJCOSX, COSX-SCS-MP3, EOM
   Christian Kollmar      : KDIIS, OOCD, Brueckner-CCSD(T), CCSD density
   Simone Kossmann        : Meta GGA functionals, TD-DFT gradient, OOMP2, MP2 Hessian
   Martin Krupicka        : AUTO-CI
   Lucas Lang             : DCDCAS
   Dagmar Lenk            : GEPOL surface, SMD
   Dimitrios Liakos       : Extrapolation schemes; Compound Job, initial MDCI parallelization
   Dimitrios Manganas     : Further ROCIS development; embedding schemes
   Dimitrios Pantazis     : SARC Basis sets
   Taras Petrenko         : DFT Hessian,TD-DFT gradient, ASA, ECA, R-Raman, ABS, FL, XAS/XES, NRVS
   Peter Pinski           : DLPNO-MP2, DLPNO-MP2 Gradient
   Christoph Reimann      : Effective Core Potentials
   Marius Retegan         : Local ZFS, SOC
   Christoph Riplinger    : Optimizer, TS searches, QM/MM, DLPNO-CCSD(T), (RO)-DLPNO pert. Triples
   Tobias Risthaus        : Range-separated hybrids, TD-DFT gradient, RPA, STAB
   Michael Roemelt        : Original ROCIS implementation
   Masaaki Saitow         : Open-shell DLPNO-CCSD energy and density
   Barbara Sandhoefer     : DKH picture change effects
   Avijit Sen             : IP-ROCIS
   Kantharuban Sivalingam : CASSCF convergence, NEVPT2, FIC-MRCI
   Bernardo de Souza      : ESD, SOC TD-DFT
   Georgi Stoychev        : AutoAux, RI-MP2 NMR
   Willem Van den Heuvel  : Paramagnetic NMR
   Boris Wezisla          : Elementary symmetry handling
   Frank Wennmohs         : Technical directorship


 We gratefully acknowledge several colleagues who have allowed us to
 interface, adapt or use parts of their codes:
   Stefan Grimme, W. Hujo, H. Kruse,             : VdW corrections, initial TS optimization,
                  C. Bannwarth                     DFT functionals, gCP, sTDA/sTD-DF
   Ed Valeev, F. Pavosevic, A. Kumar             : LibInt (2-el integral package), F12 methods
   Garnet Chan, S. Sharma, J. Yang, R. Olivares  : DMRG
   Ulf Ekstrom                                   : XCFun DFT Library
   Mihaly Kallay                                 : mrcc  (arbitrary order and MRCC methods)
   Andreas Klamt, Michael Diedenhofen            : otool_cosmo (COSMO solvation model)
   Jiri Pittner, Ondrej Demel                    : Mk-CCSD
   Frank Weinhold                                : gennbo (NPA and NBO analysis)
   Christopher J. Cramer and Donald G. Truhlar   : smd solvation model
   Lars Goerigk                                  : TD-DFT with DH, B97 family of functionals
   V. Asgeirsson, H. Jonsson                     : NEB implementation
   FAccTs GmbH                                   : IRC, NEB, NEB-TS, Multilevel, MM, QM/MM, CI optimization
   S Lehtola, MJT Oliveira, MAL Marques          : LibXC Library


 Your calculation uses the libint2 library for the computation of 2-el integrals
 For citations please refer to: http://libint.valeyev.net

 Your ORCA version has been built with support for libXC version: 4.2.3
 For citations please refer to: https://tddft.org/programs/libxc/

 This ORCA versions uses:
   CBLAS   interface :  Fast vector & matrix operations
   LAPACKE interface :  Fast linear algebra routines
   SCALAPACK package :  Parallel linear algebra routines


----- Orbital basis set information -----
Your calculation utilizes the basis: 6-31G
   H-He, Li-Ne : W. J. Hehre, R. Ditchfield and J.A. Pople, J. Chem. Phys. 56, 2257 (1972).
                 Note: He and Ne are unpublished basis sets taken from the Gaussian program.
                 Note: Li and B from J. D. Dill and J. A. Pople, J. Chem. Phys. 62, 2921 (1975).
   Na - Ar     : M. M. Francl, W. J. Pietro, W. J. Hehre, J. S. Binkley, M. S. Gordon, 
                 D. J. DeFrees and J. A. Pople, J. Chem. Phys. 77, 3654 (1982).
   K - Zn      : V. A. Rassolov, J. A. Pople, M. A. Ratner, and T. L. Windus, J. Chem. Phys. 109, 1223 (1998).

================================================================================
                                        WARNINGS
                       Please study these warnings very carefully!
================================================================================


WARNING: Geometry Optimization
  ===> : Switching off AutoStart
         For restart on a previous wavefunction, please use MOREAD

INFO   : the flag for use of LIBINT has been found!

================================================================================
                                       INPUT FILE
================================================================================
NAME = project_8048/ensemble_330_300.inp
|  1> # Test redundant internal optimization
|  2> #
|  3> ! RKS B3LYP  Opt TightSCF SmallPrint
|  4> 
|  5> %basis
|  6>         Basis "6-31G"
|  7> end
|  8> 
|  9> %geom
| 10> Constraints
| 11> { D 4  0  15  12  330.0   C } # D for Dihedral angle
| 12> { D 0  15  12  16  300.0   C } # D for Dihedral angle
| 13> { D 0  4  3  2   C } # D for Dihedral angle
| 14> { D 4  3  2  1   C } # D for Dihedral angle
| 15> { D 3  2  1  0   C } # D for Dihedral angle
| 16> { D 2  1  0  4   C } # D for Dihedral angle
| 17> { D 1  0  4  3   C } # D for Dihedral angle
| 18> { D 16  20  19  18   C } # D for Dihedral angle
| 19> { D 20  19  18  17   C } # D for Dihedral angle
| 20> { D 19  18  17  16   C } # D for Dihedral angle
| 21> { D 18  17  16  20   C } # D for Dihedral angle
| 22> { D 17  16  20  19   C } # D for Dihedral angle
| 23> { D 15  12  16  20   C } # D for Dihedral angle
| 24> end
| 25> end
| 26> 
| 27> 
| 28> #%pal 
| 29> #nprocs 8
| 30> #end
| 31> 
| 32> * xyz 0 1
| 33> C  -21.048   26.222   46.251
| 34> C  -20.361   27.558   45.944
| 35> C  -20.329   28.222   47.341
| 36> C  -20.110   27.022   48.296
| 37> O  -20.473   25.807   47.535
| 38> H  -20.833   25.428   45.533
| 39> H  -19.344   27.382   45.576
| 40> H  -20.898   28.157   45.201
| 41> H  -19.543   28.978   47.434
| 42> H  -21.289   28.710   47.548
| 43> H  -20.733   27.082   49.195
| 44> H  -19.064   26.913   48.597
| 45> C  -23.271   25.476   47.424
| 46> H  -22.856   25.689   48.417
| 47> H  -24.351   25.667   47.455
| 48> O  -22.586   26.394   46.375
| 49> C  -23.067   23.965   47.124
| 50> C  -23.543   23.609   45.710
| 51> C  -22.355   24.098   44.847
| 52> C  -21.126   23.805   45.743
| 53> O  -21.639   23.631   47.119
| 54> H  -23.530   23.377   47.918
| 55> O  -23.719   22.072   45.579
| 56> H  -24.490   24.089   45.441
| 57> H  -22.297   23.591   43.879
| 58> H  -22.446   25.174   44.657
| 59> H  -20.395   24.621   45.732
| 60> H  -20.621   22.874   45.467
| 61> H  -22.782   21.569   45.844
| 62> *
| 63> 
| 64>                          ****END OF INPUT****
================================================================================

                       *****************************
                       * Geometry Optimization Run *
                       *****************************

Geometry optimization settings:
Update method            Update   .... BFGS
Choice of coordinates    CoordSys .... Z-matrix Internals
Initial Hessian          InHess   .... Almoef's Model

Convergence Tolerances:
Energy Change            TolE     ....  5.0000e-06 Eh
Max. Gradient            TolMAXG  ....  3.0000e-04 Eh/bohr
RMS Gradient             TolRMSG  ....  1.0000e-04 Eh/bohr
Max. Displacement        TolMAXD  ....  4.0000e-03 bohr
RMS Displacement         TolRMSD  ....  2.0000e-03 bohr
Strict Convergence                ....  False
------------------------------------------------------------------------------
                        ORCA OPTIMIZATION COORDINATE SETUP
------------------------------------------------------------------------------

The optimization will be done in new redundant internal coordinates
Making redundant internal coordinates   ...  (new redundants) done
Evaluating the initial hessian          ...  (Almloef) done
Evaluating the coordinates              ...  done
Calculating the B-matrix                .... done
Calculating the G-matrix                .... done
Diagonalizing the G-matrix              .... done
Imposing constraints:
 Iter   0:  RMS(Cart)=    0.0001810464 RMS(Int)=    0.0000448821
 Iter   1:  RMS(Cart)=    0.0000904913 RMS(Int)=    0.0000243597
 Iter   2:  RMS(Cart)=    0.0000469109 RMS(Int)=    0.0000144936
 Iter   3:  RMS(Cart)=    0.0000254488 RMS(Int)=    0.0000094853
 Iter   4:  RMS(Cart)=    0.0000145385 RMS(Int)=    0.0000067758
 Iter   5:  RMS(Cart)=    0.0000087558 RMS(Int)=    0.0000052367
 Iter   6:  RMS(Cart)=    0.0000055355 RMS(Int)=    0.0000043396
 Iter   7:  RMS(Cart)=    0.0000036487 RMS(Int)=    0.0000038070
 Iter   8:  RMS(Cart)=    0.0000024931 RMS(Int)=    0.0000034801
 Iter   9:  RMS(Cart)=    0.0000017619 RMS(Int)=    0.0000032665
 Iter  10:  RMS(Cart)=    0.0000012902 RMS(Int)=    0.0000031143
 Iter  11:  RMS(Cart)=    0.0000009840 RMS(Int)=    0.0000029954
 Iter  12:  RMS(Cart)=    0.0000007856 RMS(Int)=    0.0000028948
 Iter  13:  RMS(Cart)=    0.0000006575 RMS(Int)=    0.0000028049
 Iter  14:  RMS(Cart)=    0.0000005745 RMS(Int)=    0.0000027216
 Iter  15:  RMS(Cart)=    0.0000005194 RMS(Int)=    0.0000026428
 Iter  16:  RMS(Cart)=    0.0000004815 RMS(Int)=    0.0000025675
 Iter  17:  RMS(Cart)=    0.0000004538 RMS(Int)=    0.0000024950
 Iter  18:  RMS(Cart)=    0.0000004323 RMS(Int)=    0.0000024251
 Iter  19:  RMS(Cart)=    0.0000004146 RMS(Int)=    0.0000023575
 Iter  20:  RMS(Cart)=    0.0000003994 RMS(Int)=    0.0000022920
 Iter  21:  RMS(Cart)=    0.0000003858 RMS(Int)=    0.0000022286
 Iter  22:  RMS(Cart)=    0.0000003734 RMS(Int)=    0.0000021672
 Iter  23:  RMS(Cart)=    0.0000003618 RMS(Int)=    0.0000021077
 Iter  24:  RMS(Cart)=    0.0000003509 RMS(Int)=    0.0000020500
 Iter  25:  RMS(Cart)=    0.0000003405 RMS(Int)=    0.0000019941
 Iter  26:  RMS(Cart)=    0.0000003305 RMS(Int)=    0.0000019399
 Iter  27:  RMS(Cart)=    0.0000003210 RMS(Int)=    0.0000018873
 Iter  28:  RMS(Cart)=    0.0000003118 RMS(Int)=    0.0000018364
 Iter  29:  RMS(Cart)=    0.0000003029 RMS(Int)=    0.0000017870
 Iter  30:  RMS(Cart)=    0.0000002944 RMS(Int)=    0.0000017391
 Iter  31:  RMS(Cart)=    0.0000002861 RMS(Int)=    0.0000016926
 Iter  32:  RMS(Cart)=    0.0000002781 RMS(Int)=    0.0000016476
 Iter  33:  RMS(Cart)=    0.0000002703 RMS(Int)=    0.0000016039
 Iter  34:  RMS(Cart)=    0.0000002628 RMS(Int)=    0.0000015615
 Iter  35:  RMS(Cart)=    0.0000002555 RMS(Int)=    0.0000015204
 Iter  36:  RMS(Cart)=    0.0000002484 RMS(Int)=    0.0000014805
 Iter  37:  RMS(Cart)=    0.0000002416 RMS(Int)=    0.0000014418
 Iter  38:  RMS(Cart)=    0.0000002350 RMS(Int)=    0.0000014043
 Iter  39:  RMS(Cart)=    0.0000002285 RMS(Int)=    0.0000013679
 Iter  40:  RMS(Cart)=    0.0000002223 RMS(Int)=    0.0000013325
 Iter  41:  RMS(Cart)=    0.0000002162 RMS(Int)=    0.0000012982
 Iter  42:  RMS(Cart)=    0.0000002103 RMS(Int)=    0.0000012649
 Iter  43:  RMS(Cart)=    0.0000002046 RMS(Int)=    0.0000012326
 Iter  44:  RMS(Cart)=    0.0000001991 RMS(Int)=    0.0000012012
 Iter  45:  RMS(Cart)=    0.0000001937 RMS(Int)=    0.0000011708
 Iter  46:  RMS(Cart)=    0.0000001885 RMS(Int)=    0.0000011412
 Iter  47:  RMS(Cart)=    0.0000001835 RMS(Int)=    0.0000011125
 Iter  48:  RMS(Cart)=    0.0000001786 RMS(Int)=    0.0000010846
 Iter  49:  RMS(Cart)=    0.0000001738 RMS(Int)=    0.0000010576
 Iter  50:  RMS(Cart)=    0.0000001692 RMS(Int)=    0.0000010313
 Iter  51:  RMS(Cart)=    0.0000001647 RMS(Int)=    0.0000010058
 Iter  52:  RMS(Cart)=    0.0000001603 RMS(Int)=    0.0000009810
 Iter  53:  RMS(Cart)=    0.0000001561 RMS(Int)=    0.0000009569
 Iter  54:  RMS(Cart)=    0.0000001520 RMS(Int)=    0.0000009336
 Iter  55:  RMS(Cart)=    0.0000001480 RMS(Int)=    0.0000009108
 Iter  56:  RMS(Cart)=    0.0000001441 RMS(Int)=    0.0000008888
 Iter  57:  RMS(Cart)=    0.0000001404 RMS(Int)=    0.0000008673
 Iter  58:  RMS(Cart)=    0.0000001367 RMS(Int)=    0.0000008465
 Iter  59:  RMS(Cart)=    0.0000001332 RMS(Int)=    0.0000008262
 Iter  60:  RMS(Cart)=    0.0000001297 RMS(Int)=    0.0000008066
 Iter  61:  RMS(Cart)=    0.0000001264 RMS(Int)=    0.0000007875
 Iter  62:  RMS(Cart)=    0.0000001231 RMS(Int)=    0.0000007689
 Iter  63:  RMS(Cart)=    0.0000001200 RMS(Int)=    0.0000007508
 Iter  64:  RMS(Cart)=    0.0000001169 RMS(Int)=    0.0000007333
 Iter  65:  RMS(Cart)=    0.0000001139 RMS(Int)=    0.0000007162
 Iter  66:  RMS(Cart)=    0.0000001110 RMS(Int)=    0.0000006996
 Iter  67:  RMS(Cart)=    0.0000001082 RMS(Int)=    0.0000006835
 Iter  68:  RMS(Cart)=    0.0000001055 RMS(Int)=    0.0000006678
 Iter  69:  RMS(Cart)=    0.0000001028 RMS(Int)=    0.0000006525
 Iter  70:  RMS(Cart)=    0.0000001002 RMS(Int)=    0.0000006377
 Iter  71:  RMS(Cart)=    0.0000000977 RMS(Int)=    0.0000006233
 Iter  72:  RMS(Cart)=    0.0000000952 RMS(Int)=    0.0000006092
 Iter  73:  RMS(Cart)=    0.0000000929 RMS(Int)=    0.0000005956
 Iter  74:  RMS(Cart)=    0.0000000906 RMS(Int)=    0.0000005823
 Iter  75:  RMS(Cart)=    0.0000000883 RMS(Int)=    0.0000005694
 Iter  76:  RMS(Cart)=    0.0000000861 RMS(Int)=    0.0000005568
 Iter  77:  RMS(Cart)=    0.0000000840 RMS(Int)=    0.0000005446
 Iter  78:  RMS(Cart)=    0.0000000819 RMS(Int)=    0.0000005327
 Iter  79:  RMS(Cart)=    0.0000000799 RMS(Int)=    0.0000005211
 Iter  80:  RMS(Cart)=    0.0000000780 RMS(Int)=    0.0000005099
 Iter  81:  RMS(Cart)=    0.0000000761 RMS(Int)=    0.0000004989
 Iter  82:  RMS(Cart)=    0.0000000742 RMS(Int)=    0.0000004882
 Iter  83:  RMS(Cart)=    0.0000000724 RMS(Int)=    0.0000004779
 Iter  84:  RMS(Cart)=    0.0000000706 RMS(Int)=    0.0000004677
 Iter  85:  RMS(Cart)=    0.0000000689 RMS(Int)=    0.0000004579
 Iter  86:  RMS(Cart)=    0.0000000673 RMS(Int)=    0.0000004483
 Iter  87:  RMS(Cart)=    0.0000000657 RMS(Int)=    0.0000004390
 Iter  88:  RMS(Cart)=    0.0000000641 RMS(Int)=    0.0000004299
 Iter  89:  RMS(Cart)=    0.0000000626 RMS(Int)=    0.0000004210
 Iter  90:  RMS(Cart)=    0.0000000611 RMS(Int)=    0.0000004124
 Iter  91:  RMS(Cart)=    0.0000000596 RMS(Int)=    0.0000004040
 Iter  92:  RMS(Cart)=    0.0000000582 RMS(Int)=    0.0000003958
 Iter  93:  RMS(Cart)=    0.0000000569 RMS(Int)=    0.0000003878
 Iter  94:  RMS(Cart)=    0.0000000555 RMS(Int)=    0.0000003800
 Iter  95:  RMS(Cart)=    0.0000000542 RMS(Int)=    0.0000003725
 Iter  96:  RMS(Cart)=    0.0000000530 RMS(Int)=    0.0000003651
 Iter  97:  RMS(Cart)=    0.0000000517 RMS(Int)=    0.0000003579
 Iter  98:  RMS(Cart)=    0.0000000505 RMS(Int)=    0.0000003509
 Iter  99:  RMS(Cart)=    0.0000000494 RMS(Int)=    0.0000003440
 RMS(Cart) too big - taking linear step, building new B-matrix and trying again
Imposing constraints:
 Iter   0:  RMS(Cart)=    0.0000904877 RMS(Int)=    0.0000243596
 Iter   1:  RMS(Cart)=    0.0000469090 RMS(Int)=    0.0000144933
 Iter   2:  RMS(Cart)=    0.0000254477 RMS(Int)=    0.0000094849
 Iter   3:  RMS(Cart)=    0.0000145377 RMS(Int)=    0.0000067754
 Iter   4:  RMS(Cart)=    0.0000087553 RMS(Int)=    0.0000052364
 Iter   5:  RMS(Cart)=    0.0000055351 RMS(Int)=    0.0000043393
 Iter   6:  RMS(Cart)=    0.0000036485 RMS(Int)=    0.0000038067
 Iter   7:  RMS(Cart)=    0.0000024930 RMS(Int)=    0.0000034798
 Iter   8:  RMS(Cart)=    0.0000017618 RMS(Int)=    0.0000032662
 Iter   9:  RMS(Cart)=    0.0000012901 RMS(Int)=    0.0000031140
 Iter  10:  RMS(Cart)=    0.0000009839 RMS(Int)=    0.0000029951
 Iter  11:  RMS(Cart)=    0.0000007855 RMS(Int)=    0.0000028945
 Iter  12:  RMS(Cart)=    0.0000006575 RMS(Int)=    0.0000028046
 Iter  13:  RMS(Cart)=    0.0000005744 RMS(Int)=    0.0000027213
 Iter  14:  RMS(Cart)=    0.0000005194 RMS(Int)=    0.0000026425
 Iter  15:  RMS(Cart)=    0.0000004815 RMS(Int)=    0.0000025673
 Iter  16:  RMS(Cart)=    0.0000004537 RMS(Int)=    0.0000024948
 Iter  17:  RMS(Cart)=    0.0000004322 RMS(Int)=    0.0000024249
 Iter  18:  RMS(Cart)=    0.0000004146 RMS(Int)=    0.0000023573
 Iter  19:  RMS(Cart)=    0.0000003994 RMS(Int)=    0.0000022918
 Iter  20:  RMS(Cart)=    0.0000003858 RMS(Int)=    0.0000022284
 Iter  21:  RMS(Cart)=    0.0000003734 RMS(Int)=    0.0000021670
 Iter  22:  RMS(Cart)=    0.0000003618 RMS(Int)=    0.0000021075
 Iter  23:  RMS(Cart)=    0.0000003508 RMS(Int)=    0.0000020498
 Iter  24:  RMS(Cart)=    0.0000003405 RMS(Int)=    0.0000019939
 Iter  25:  RMS(Cart)=    0.0000003305 RMS(Int)=    0.0000019397
 Iter  26:  RMS(Cart)=    0.0000003210 RMS(Int)=    0.0000018872
 Iter  27:  RMS(Cart)=    0.0000003118 RMS(Int)=    0.0000018362
 Iter  28:  RMS(Cart)=    0.0000003029 RMS(Int)=    0.0000017868
 Iter  29:  RMS(Cart)=    0.0000002944 RMS(Int)=    0.0000017389
 Iter  30:  RMS(Cart)=    0.0000002861 RMS(Int)=    0.0000016925
 Iter  31:  RMS(Cart)=    0.0000002781 RMS(Int)=    0.0000016475
 Iter  32:  RMS(Cart)=    0.0000002703 RMS(Int)=    0.0000016038
 Iter  33:  RMS(Cart)=    0.0000002628 RMS(Int)=    0.0000015614
 Iter  34:  RMS(Cart)=    0.0000002555 RMS(Int)=    0.0000015203
 Iter  35:  RMS(Cart)=    0.0000002484 RMS(Int)=    0.0000014804
 Iter  36:  RMS(Cart)=    0.0000002416 RMS(Int)=    0.0000014417
 Iter  37:  RMS(Cart)=    0.0000002349 RMS(Int)=    0.0000014042
 Iter  38:  RMS(Cart)=    0.0000002285 RMS(Int)=    0.0000013678
 Iter  39:  RMS(Cart)=    0.0000002223 RMS(Int)=    0.0000013324
 Iter  40:  RMS(Cart)=    0.0000002162 RMS(Int)=    0.0000012981
 Iter  41:  RMS(Cart)=    0.0000002103 RMS(Int)=    0.0000012648
 Iter  42:  RMS(Cart)=    0.0000002046 RMS(Int)=    0.0000012325
 Iter  43:  RMS(Cart)=    0.0000001991 RMS(Int)=    0.0000012012
 Iter  44:  RMS(Cart)=    0.0000001937 RMS(Int)=    0.0000011707
 Iter  45:  RMS(Cart)=    0.0000001885 RMS(Int)=    0.0000011412
 Iter  46:  RMS(Cart)=    0.0000001835 RMS(Int)=    0.0000011125
 Iter  47:  RMS(Cart)=    0.0000001786 RMS(Int)=    0.0000010846
 Iter  48:  RMS(Cart)=    0.0000001738 RMS(Int)=    0.0000010576
 Iter  49:  RMS(Cart)=    0.0000001692 RMS(Int)=    0.0000010313
 Iter  50:  RMS(Cart)=    0.0000001647 RMS(Int)=    0.0000010058
 Iter  51:  RMS(Cart)=    0.0000001603 RMS(Int)=    0.0000009810
CONVERGED
Small eigenvalue found = 6.104e-03
Small eigenvalue found = 1.206e-02
Small eigenvalue found = 1.381e-02
The first mode is                       ....   91
The number of degrees of freedom        ....   81
Storing new coordinates                 .... done

    -----------------------------------------------------------------
                    Redundant Internal Coordinates


    -----------------------------------------------------------------
         Definition                    Initial Value    Approx d2E/dq
    -----------------------------------------------------------------
      1. B(C   1,C   0)                  1.5333         0.369027   
      2. B(C   2,C   1)                  1.5471         0.350825   
      3. B(C   3,C   2)                  1.5492         0.348147   
      4. B(O   4,C   0)                  1.4668         0.422031   
      5. B(O   4,C   3)                  1.4789         0.403699   
      6. B(H   5,C   0)                  1.0919         0.357632   
      7. B(H   6,C   1)                  1.0958         0.352561   
      8. B(H   7,C   1)                  1.0951         0.353431   
      9. B(H   8,C   2)                  1.0945         0.354166   
     10. B(H   9,C   2)                  1.0966         0.351438   
     11. B(H  10,C   3)                  1.0954         0.353010   
     12. B(H  11,C   3)                  1.0939         0.354989   
     13. B(H  13,C  12)                  1.0971         0.350820   
     14. B(H  14,C  12)                  1.0972         0.350704   
     15. B(O  15,C   0)                  1.5525         0.307993   
     16. B(O  15,C  12)                  1.5532         0.307285   
     17. B(C  16,C  12)                  1.5539         0.342120   
     18. B(C  17,C  16)                  1.5339         0.368323   
     19. B(C  18,C  17)                  1.5477         0.350115   
     20. B(C  19,C  18)                  1.5489         0.348511   
     21. B(O  20,C  16)                  1.4665         0.422422   
     22. B(O  20,C  19)                  1.4788         0.403846   
     23. B(H  21,C  16)                  1.0911         0.358618   
     24. B(O  22,C  17)                  1.5526         0.307956   
     25. B(H  23,C  17)                  1.0952         0.353223   
     26. B(H  24,C  18)                  1.0943         0.354489   
     27. B(H  25,C  18)                  1.0964         0.351695   
     28. B(H  26,C  19)                  1.0956         0.352768   
     29. B(H  27,C  19)                  1.0945         0.354177   
     30. B(H  28,O  22)                  1.0960         0.315498   
     31. A(O   4,C   0,H   5)          107.0218         0.328541   
     32. A(C   1,C   0,O  15)          111.3017         0.348740   
     33. A(C   1,C   0,O   4)          104.2484         0.367935   
     34. A(O   4,C   0,O  15)          110.4735         0.354548   
     35. A(C   1,C   0,H   5)          114.4374         0.323302   
     36. A(H   5,C   0,O  15)          109.1579         0.312058   
     37. A(C   0,C   1,C   2)          101.6797         0.358729   
     38. A(C   2,C   1,H   7)          112.8318         0.320016   
     39. A(C   2,C   1,H   6)          110.6709         0.319888   
     40. A(C   0,C   1,H   6)          110.0676         0.322546   
     41. A(H   6,C   1,H   7)          108.3681         0.289027   
     42. A(C   0,C   1,H   7)          113.1243         0.322677   
     43. A(C   1,C   2,H   8)          112.8319         0.320125   
     44. A(C   1,C   2,C   3)          103.1266         0.355196   
     45. A(C   1,C   2,H   9)          110.0801         0.319721   
     46. A(C   3,C   2,H   9)          110.6152         0.319321   
     47. A(C   3,C   2,H   8)          112.4039         0.319725   
     48. A(H   8,C   2,H   9)          107.7728         0.288977   
     49. A(O   4,C   3,H  10)          109.1298         0.325449   
     50. A(C   2,C   3,H  10)          112.5253         0.319554   
     51. A(C   2,C   3,O   4)          106.5276         0.361529   
     52. A(O   4,C   3,H  11)          107.1237         0.325748   
     53. A(H  10,C   3,H  11)          108.8728         0.289284   
     54. A(C   2,C   3,H  11)          112.4566         0.319846   
     55. A(C   0,O   4,C   3)          108.3148         0.371320   
     56. A(H  14,C  12,C  16)          107.6880         0.318304   
     57. A(H  13,C  12,H  14)          108.2383         0.288453   
     58. A(H  13,C  12,O  15)          109.2505         0.310973   
     59. A(H  14,C  12,O  15)          110.5080         0.310956   
     60. A(O  15,C  12,C  16)          112.7322         0.344195   
     61. A(H  13,C  12,C  16)          108.2989         0.318321   
     62. A(C   0,O  15,C  12)          115.1736         0.336146   
     63. A(C  12,C  16,C  17)          111.2786         0.357083   
     64. A(C  12,C  16,O  20)          110.4837         0.363254   
     65. A(C  17,C  16,O  20)          104.2506         0.367873   
     66. A(C  12,C  16,H  21)          109.1365         0.319465   
     67. A(C  17,C  16,H  21)          114.4605         0.323347   
     68. A(O  20,C  16,H  21)          107.0342         0.328741   
     69. A(C  16,C  17,C  18)          101.6835         0.358489   
     70. A(C  16,C  17,O  22)          110.0430         0.348621   
     71. A(C  18,C  17,O  22)          110.6562         0.345659   
     72. A(C  16,C  17,H  23)          113.1426         0.322544   
     73. A(C  18,C  17,H  23)          112.8476         0.319880   
     74. A(O  22,C  17,H  23)          108.3681         0.311426   
     75. A(C  17,C  18,C  19)          103.1047         0.355137   
     76. A(C  17,C  18,H  24)          112.8032         0.320067   
     77. A(C  19,C  18,H  24)          112.4589         0.319827   
     78. A(C  17,C  18,H  25)          110.0595         0.319653   
     79. A(C  19,C  18,H  25)          110.5939         0.319414   
     80. A(H  24,C  18,H  25)          107.8059         0.289051   
     81. A(C  18,C  19,O  20)          106.5748         0.361616   
     82. A(C  18,C  19,H  26)          112.5018         0.319573   
     83. A(O  20,C  19,H  26)          109.1740         0.325431   
     84. A(C  18,C  19,H  27)          112.4038         0.319781   
     85. A(O  20,C  19,H  27)          107.1342         0.325645   
     86. A(H  26,C  19,H  27)          108.8535         0.289149   
     87. A(C  16,O  20,C  19)          108.3106         0.371403   
     88. A(C  17,O  22,H  28)          109.6956         0.303285   
     89. D(H   7,C   1,C   0,H   5)     82.1516         0.010890   
     90. D(C   2,C   1,C   0,O  15)     79.0867         0.010890   
     91. D(H   7,C   1,C   0,O  15)    -42.1869         0.010890   
     92. D(H   6,C   1,C   0,O   4)     77.3260         0.010890   
     93. D(H   6,C   1,C   0,O  15)   -163.5727         0.010890   
     94. D(H   6,C   1,C   0,H   5)    -39.2342         0.010890   
     95. D(H   7,C   1,C   0,O   4)   -161.2881         0.010890   
     96. D(C   2,C   1,C   0,O   4)    -40.0145         0.010890 C 
     97. D(C   2,C   1,C   0,H   5)   -156.5748         0.010890   
     98. D(H   9,C   2,C   1,H   6)    160.0776         0.009912   
     99. D(H   8,C   2,C   1,C   0)    156.5479         0.009912   
    100. D(H   8,C   2,C   1,H   6)     39.6446         0.009912   
    101. D(C   3,C   2,C   1,C   0)     35.0270         0.009912 C 
    102. D(H   8,C   2,C   1,H   7)    -81.9752         0.009912   
    103. D(H   9,C   2,C   1,C   0)    -83.0191         0.009912   
    104. D(C   3,C   2,C   1,H   6)    -81.8763         0.009912   
    105. D(H   9,C   2,C   1,H   7)     38.4578         0.009912   
    106. D(C   3,C   2,C   1,H   7)    156.5039         0.009912   
    107. D(H  11,C   3,C   2,H   9)   -143.4628         0.009774   
    108. D(O   4,C   3,C   2,H   8)   -140.0066         0.009774   
    109. D(O   4,C   3,C   2,H   9)     99.4739         0.009774   
    110. D(H  10,C   3,C   2,C   1)   -137.7433         0.009774   
    111. D(H  10,C   3,C   2,H   8)    100.4468         0.009774   
    112. D(H  10,C   3,C   2,H   9)    -20.0727         0.009774   
    113. D(H  11,C   3,C   2,C   1)     98.8667         0.009774   
    114. D(O   4,C   3,C   2,C   1)    -18.1967         0.009774 C 
    115. D(H  11,C   3,C   2,H   8)    -22.9433         0.009774   
    116. D(C   3,O   4,C   0,C   1)     29.5918         0.014035 C 
    117. D(C   3,O   4,C   0,H   5)    151.2013         0.014035   
    118. D(C   3,O   4,C   0,O  15)    -90.0707         0.014035   
    119. D(C   0,O   4,C   3,C   2)     -6.8732         0.012866 C 
    120. D(C   0,O   4,C   3,H  10)    114.8547         0.012866   
    121. D(C   0,O   4,C   3,H  11)   -127.4272         0.012866   
    122. D(C   0,O  15,C  12,C  16)    -60.0000         0.007762 C 
    123. D(C  12,O  15,C   0,O   4)    -30.0000         0.007793 C 
    124. D(C  12,O  15,C   0,H   5)     87.4197         0.007793   
    125. D(C   0,O  15,C  12,H  14)    179.4409         0.007762   
    126. D(C   0,O  15,C  12,H  13)     60.4571         0.007762   
    127. D(C  12,O  15,C   0,C   1)   -145.3132         0.007793   
    128. D(C  17,C  16,C  12,H  13)   -176.3369         0.009466   
    129. D(H  21,C  16,C  12,H  14)    -60.4382         0.009466   
    130. D(C  17,C  16,C  12,O  15)    -55.3356         0.009466   
    131. D(O  20,C  16,C  12,H  13)    -61.0287         0.009466   
    132. D(O  20,C  16,C  12,H  14)   -177.8659         0.009466   
    133. D(O  20,C  16,C  12,O  15)     59.9726         0.009466 C 
    134. D(C  17,C  16,C  12,H  14)     66.8258         0.009466   
    135. D(H  21,C  16,C  12,H  13)     56.3990         0.009466   
    136. D(H  21,C  16,C  12,O  15)    177.4004         0.009466   
    137. D(C  18,C  17,C  16,C  12)     79.1160         0.010851   
    138. D(C  18,C  17,C  16,O  20)    -39.9868         0.010851 C 
    139. D(C  18,C  17,C  16,H  21)   -156.5752         0.010851   
    140. D(O  22,C  17,C  16,C  12)   -163.5687         0.010851   
    141. D(O  22,C  17,C  16,O  20)     77.3285         0.010851   
    142. D(O  22,C  17,C  16,H  21)    -39.2599         0.010851   
    143. D(H  23,C  17,C  16,C  12)    -42.1880         0.010851   
    144. D(H  23,C  17,C  16,O  20)   -161.2909         0.010851   
    145. D(H  23,C  17,C  16,H  21)     82.1207         0.010851   
    146. D(H  24,C  18,C  17,H  23)    -81.9565         0.009876   
    147. D(C  19,C  18,C  17,O  22)    -81.8946         0.009876   
    148. D(C  19,C  18,C  17,H  23)    156.4853         0.009876   
    149. D(H  24,C  18,C  17,C  16)    156.5344         0.009876   
    150. D(C  19,C  18,C  17,C  16)     34.9762         0.009876 C 
    151. D(H  24,C  18,C  17,O  22)     39.6636         0.009876   
    152. D(H  25,C  18,C  17,C  16)    -83.0240         0.009876   
    153. D(H  25,C  18,C  17,O  22)    160.1053         0.009876   
    154. D(H  25,C  18,C  17,H  23)     38.4851         0.009876   
    155. D(H  27,C  19,C  18,H  25)   -143.4558         0.009793   
    156. D(O  20,C  19,C  18,H  24)   -139.9479         0.009793   
    157. D(O  20,C  19,C  18,H  25)     99.4679         0.009793   
    158. D(H  26,C  19,C  18,C  17)   -137.7748         0.009793   
    159. D(H  26,C  19,C  18,H  24)    100.4344         0.009793   
    160. D(H  26,C  19,C  18,H  25)    -20.1498         0.009793   
    161. D(H  27,C  19,C  18,C  17)     98.9193         0.009793   
    162. D(O  20,C  19,C  18,C  17)    -18.1571         0.009793 C 
    163. D(H  27,C  19,C  18,H  24)    -22.8715         0.009793   
    164. D(C  19,O  20,C  16,C  12)    -90.0526         0.014061   
    165. D(C  19,O  20,C  16,C  17)     29.5890         0.014061 C 
    166. D(C  19,O  20,C  16,H  21)    151.2323         0.014061   
    167. D(C  16,O  20,C  19,C  18)     -6.8977         0.012875 C 
    168. D(C  16,O  20,C  19,H  26)    114.8549         0.012875   
    169. D(C  16,O  20,C  19,H  27)   -127.4205         0.012875   
    170. D(H  28,O  22,C  17,C  16)    -55.7965         0.007792   
    171. D(H  28,O  22,C  17,C  18)     55.7900         0.007792   
    172. D(H  28,O  22,C  17,H  23)   -179.9874         0.007792   
    -----------------------------------------------------------------

Number of atoms                         .... 29
Number of degrees of freedom            .... 172

         *************************************************************
         *                GEOMETRY OPTIMIZATION CYCLE   1            *
         *************************************************************
---------------------------------
CARTESIAN COORDINATES (ANGSTROEM)
---------------------------------
  C    -21.047751   26.221946   46.251239
  C    -20.360883   27.557983   45.944066
  C    -20.329069   28.222242   47.340953
  C    -20.109998   27.022428   48.296168
  O    -20.472792   25.807259   47.535355
  H    -20.832598   25.427871   45.533368
  H    -19.343836   27.382039   45.576170
  H    -20.897902   28.156793   45.200926
  H    -19.543168   28.978353   47.433882
  H    -21.289143   28.710163   47.547797
  H    -20.733071   27.082504   49.195112
  H    -19.064007   26.913605   48.597264
  C    -23.270795   25.475833   47.424084
  H    -22.855771   25.688828   48.417075
  H    -24.350794   25.666837   47.455110
  O    -22.585775   26.393833   46.375097
  C    -23.066987   23.964833   47.123954
  C    -23.543125   23.609012   45.709952
  C    -22.355131   24.097954   44.846907
  C    -21.126104   23.804733   45.742797
  O    -21.639027   23.630671   47.118815
  H    -23.530007   23.376816   47.917930
  O    -23.719310   22.072043   45.578831
  H    -24.490088   24.089145   45.441060
  H    -22.297257   23.591033   43.878859
  H    -22.446022   25.173981   44.657008
  H    -20.395011   24.620650   45.731819
  H    -20.621231   22.873699   45.466680
  H    -22.782349   21.568913   45.843722

----------------------------
CARTESIAN COORDINATES (A.U.)
----------------------------
  NO LB      ZA    FRAG     MASS         X           Y           Z
   0 C     6.0000    0    12.011  -39.774484   49.552297   87.402176
   1 C     6.0000    0    12.011  -38.476493   52.077041   86.821702
   2 C     6.0000    0    12.011  -38.416374   53.332308   89.461437
   3 C     6.0000    0    12.011  -38.002388   51.064988   91.266532
   4 O     8.0000    0    15.999  -38.687970   48.768652   89.828802
   5 H     1.0000    0     1.008  -39.367905   48.051713   86.045596
   6 H     1.0000    0     1.008  -36.554553   51.744555   86.126479
   7 H     1.0000    0     1.008  -39.491311   53.208628   85.417371
   8 H     1.0000    0     1.008  -36.931236   54.761151   89.637046
   9 H     1.0000    0     1.008  -40.230650   54.254346   89.852314
  10 H     1.0000    0     1.008  -39.179827   51.178516   92.965289
  11 H     1.0000    0     1.008  -36.025751   50.859343   91.835519
  12 C     6.0000    0    12.011  -43.975429   48.142348   89.618530
  13 H     1.0000    0     1.008  -43.191147   48.544850   91.495011
  14 H     1.0000    0     1.008  -46.016331   48.503292   89.677161
  15 O     8.0000    0    15.999  -42.680929   49.877116   87.636232
  16 C     6.0000    0    12.011  -43.590288   45.286971   89.051368
  17 C     6.0000    0    12.011  -44.490058   44.614566   86.379292
  18 C     6.0000    0    12.011  -42.245075   45.538533   84.748373
  19 C     6.0000    0    12.011  -39.922551   44.984427   86.441360
  20 O     8.0000    0    15.999  -40.891834   44.655496   89.041657
  21 H     1.0000    0     1.008  -44.465269   44.175779   90.551764
  22 O     8.0000    0    15.999  -44.823000   41.710117   86.131509
  23 H     1.0000    0     1.008  -46.279559   45.521886   85.871159
  24 H     1.0000    0     1.008  -42.135709   44.580591   82.919026
  25 H     1.0000    0     1.008  -42.416834   47.571929   84.389515
  26 H     1.0000    0     1.008  -38.540985   46.526286   86.420614
  27 H     1.0000    0     1.008  -38.968479   43.225028   85.919574
  28 H     1.0000    0     1.008  -43.052400   40.759338   86.632079

--------------------------------
INTERNAL COORDINATES (ANGSTROEM)
--------------------------------
 C      0   0   0     0.000000000000     0.00000000     0.00000000
 C      1   0   0     1.533334275362     0.00000000     0.00000000
 C      2   1   0     1.547103422529   101.67907390     0.00000000
 C      3   2   1     1.549188819996   103.12737509    35.02687180
 O      1   2   3     1.466801281701   104.24948604   319.98542309
 H      1   2   3     1.091872245274   114.43876658   203.42640133
 H      2   1   3     1.095759553917   110.06782188   117.34000099
 H      2   1   3     1.095088580892   113.12442239   238.72597460
 H      3   2   1     1.094523183857   112.83161078   156.54780790
 H      3   2   1     1.096628013503   110.07982737   276.98070077
 H      4   3   2     1.095413164062   112.52534669   222.25678475
 H      4   3   2     1.093891219455   112.45670684    98.86663270
 C      1   2   3     2.621864603674   135.83778408    53.11057246
 H     13   1   2     1.097106649328    91.66038604   284.82694656
 H     13   1   2     1.097197338677   142.91007276    48.71151681
 O      1   2   3     1.552547583812   111.30349807    79.08752829
 C     13   1   2     1.553942405625    94.53038408   176.32881099
 C     17  13   1     1.533853969581   111.27923610   276.92143204
 C     18  17  13     1.547654354176   101.68319427    79.11637350
 C     19  18  17     1.548904774349   103.10504212    34.97613754
 O     17  13   1     1.466548669496   110.48355075    32.23049388
 H     17  13   1     1.091122816185   109.13591851   149.65688868
 O     18  17  13     1.552580432699   110.04313245   196.43150647
 H     18  17  13     1.095248830175   113.14266813   317.81218647
 H     19  18  17     1.094274645599   112.80310192   156.53438198
 H     19  18  17     1.096429204281   110.05945241   276.97596491
 H      6   1   2     0.939517961510   125.24938993   117.48832694
 H     20  19  18     1.094514504244   112.40379705    98.91929710
 H     23  18  17     1.095994069327   109.69557675   304.20364305

---------------------------
INTERNAL COORDINATES (A.U.)
---------------------------
 C      0   0   0     0.000000000000     0.00000000     0.00000000
 C      1   0   0     2.897581852189     0.00000000     0.00000000
 C      2   1   0     2.923601769431   101.67907390     0.00000000
 C      3   2   1     2.927542599525   103.12737509    35.02687180
 O      1   2   3     2.771852715300   104.24948604   319.98542309
 H      1   2   3     2.063339516798   114.43876658   203.42640133
 H      2   1   3     2.070685465531   110.06782188   117.34000099
 H      2   1   3     2.069417510270   113.12442239   238.72597460
 H      3   2   1     2.068349064717   112.83161078   156.54780790
 H      3   2   1     2.072326616307   110.07982737   276.98070077
 H      4   3   2     2.070030883569   112.52534669   222.25678475
 H      4   3   2     2.067154825070   112.45670684    98.86663270
 C      1   2   3     4.954606061166   135.83778408    53.11057246
 H     13   1   2     2.073231106934    91.66038604   284.82694656
 H     13   1   2     2.073402484967   142.91007276    48.71151681
 O      1   2   3     2.933889743286   111.30349807    79.08752829
 C     13   1   2     2.936525574518    94.53038408   176.32881099
 C     17  13   1     2.898563931936   111.27923610   276.92143204
 C     18  17  13     2.924642879363   101.68319427    79.11637350
 C     19  18  17     2.927005831042   103.10504212    34.97613754
 O     17  13   1     2.771375347414   110.48355075    32.23049388
 H     17  13   1     2.061923301063   109.13591851   149.65688868
 O     18  17  13     2.933951818686   110.04313245   196.43150647
 H     18  17  13     2.069720337529   113.14266813   317.81218647
 H     19  18  17     2.067879395475   112.80310192   156.53438198
 H     19  18  17     2.071950921324   110.05945241   276.97596491
 H      6   1   2     1.775431645154   125.24938993   117.48832694
 H     20  19  18     2.068332662625   112.40379705    98.91929710
 H     23  18  17     2.071128635430   109.69557675   304.20364305

---------------------
BASIS SET INFORMATION
---------------------
There are 3 groups of distinct atoms

 Group   1 Type C   : 10s4p contracted to 3s2p pattern {631/31}
 Group   2 Type O   : 10s4p contracted to 3s2p pattern {631/31}
 Group   3 Type H   : 4s contracted to 2s pattern {31}

Atom   0C    basis set group =>   1
Atom   1C    basis set group =>   1
Atom   2C    basis set group =>   1
Atom   3C    basis set group =>   1
Atom   4O    basis set group =>   2
Atom   5H    basis set group =>   3
Atom   6H    basis set group =>   3
Atom   7H    basis set group =>   3
Atom   8H    basis set group =>   3
Atom   9H    basis set group =>   3
Atom  10H    basis set group =>   3
Atom  11H    basis set group =>   3
Atom  12C    basis set group =>   1
Atom  13H    basis set group =>   3
Atom  14H    basis set group =>   3
Atom  15O    basis set group =>   2
Atom  16C    basis set group =>   1
Atom  17C    basis set group =>   1
Atom  18C    basis set group =>   1
Atom  19C    basis set group =>   1
Atom  20O    basis set group =>   2
Atom  21H    basis set group =>   3
Atom  22O    basis set group =>   2
Atom  23H    basis set group =>   3
Atom  24H    basis set group =>   3
Atom  25H    basis set group =>   3
Atom  26H    basis set group =>   3
Atom  27H    basis set group =>   3
Atom  28H    basis set group =>   3
------------------------------------------------------------------------------
                           ORCA GTO INTEGRAL CALCULATION
------------------------------------------------------------------------------

                         BASIS SET STATISTICS AND STARTUP INFO

 # of primitive gaussian shells          ...  246
 # of primitive gaussian functions       ...  350
 # of contracted shells                  ...   97
 # of contracted basis functions         ...  149
 Highest angular momentum                ...    1
 Maximum contraction depth               ...    6
 Integral package used                   ... LIBINT
 Integral threshhold            Thresh   ...  2.500e-11
 Primitive cut-off              TCut     ...  2.500e-12


------------------------------ INTEGRAL EVALUATION ----------------------------


 * One electron integrals 
 Pre-screening matrix                    ... done
 Shell pair data                         ... done (   0.003 sec)

-------------------------------------------------------------------------------
                                 ORCA SCF
-------------------------------------------------------------------------------

------------
SCF SETTINGS
------------
Hamiltonian:
 Density Functional     Method          .... DFT(GTOs)
 Exchange Functional    Exchange        .... B88
   X-Alpha parameter    XAlpha          ....  0.666667
   Becke's b parameter  XBeta           ....  0.004200
 Correlation Functional Correlation     .... LYP
 LDA part of GGA corr.  LDAOpt          .... VWN-5
 Gradients option       PostSCFGGA      .... off
 Hybrid DFT is turned on
   Fraction HF Exchange ScalHFX         ....  0.200000
   Scaling of DF-GGA-X  ScalDFX         ....  0.720000
   Scaling of DF-GGA-C  ScalDFC         ....  0.810000
   Scaling of DF-LDA-C  ScalLDAC        ....  1.000000
   Perturbative correction              ....  0.000000
   Density functional embedding theory  .... OFF
   NL short-range parameter             ....  4.800000


General Settings:
 Integral files         IntName         .... project_8048/ensemble_330_300
 Hartree-Fock type      HFTyp           .... RHF
 Total Charge           Charge          ....    0
 Multiplicity           Mult            ....    1
 Number of Electrons    NEL             ....  102
 Basis Dimension        Dim             ....  149
 Nuclear Repulsion      ENuc            ....    929.2990807976 Eh

Convergence Acceleration:
 DIIS                   CNVDIIS         .... on
   Start iteration      DIISMaxIt       ....    12
   Startup error        DIISStart       ....  0.200000
   # of expansion vecs  DIISMaxEq       ....     5
   Bias factor          DIISBfac        ....   1.050
   Max. coefficient     DIISMaxC        ....  10.000
 Newton-Raphson         CNVNR           .... off
 SOSCF                  CNVSOSCF        .... on
   Start iteration      SOSCFMaxIt      ....   150
   Startup grad/error   SOSCFStart      ....  0.003300
 Level Shifting         CNVShift        .... on
   Level shift para.    LevelShift      ....    0.2500
   Turn off err/grad.   ShiftErr        ....    0.0010
 Zerner damping         CNVZerner       .... off
 Static damping         CNVDamp         .... on
   Fraction old density DampFac         ....    0.7000
   Max. Damping (<1)    DampMax         ....    0.9800
   Min. Damping (>=0)   DampMin         ....    0.0000
   Turn off err/grad.   DampErr         ....    0.1000
 Fernandez-Rico         CNVRico         .... off

SCF Procedure:
 Maximum # iterations   MaxIter         ....   125
 SCF integral mode      SCFMode         .... Direct
   Integral package                     .... LIBINT
 Reset frequency        DirectResetFreq ....    20
 Integral Threshold     Thresh          ....  2.500e-11 Eh
 Primitive CutOff       TCut            ....  2.500e-12 Eh

Convergence Tolerance:
 Convergence Check Mode ConvCheckMode   .... Total+1el-Energy
 Convergence forced     ConvForced      .... 0
 Energy Change          TolE            ....  1.000e-08 Eh
 1-El. energy change                    ....  1.000e-05 Eh
 Orbital Gradient       TolG            ....  1.000e-05
 Orbital Rotation angle TolX            ....  1.000e-05
 DIIS Error             TolErr          ....  5.000e-07


Diagonalization of the overlap matrix:
Smallest eigenvalue                        ... 3.900e-03
Time for diagonalization                   ...    0.008 sec
Threshold for overlap eigenvalues          ... 1.000e-08
Number of eigenvalues below threshold      ... 0
Time for construction of square roots      ...    0.088 sec
Total time needed                          ...    0.097 sec

-------------------
DFT GRID GENERATION
-------------------

General Integration Accuracy     IntAcc      ...  4.340
Radial Grid Type                 RadialGrid  ... Gauss-Chebyshev
Angular Grid (max. acc.)         AngularGrid ... Lebedev-110
Angular grid pruning method      GridPruning ... 3 (G Style)
Weight generation scheme         WeightScheme... Becke
Basis function cutoff            BFCut       ...    1.0000e-11
Integration weight cutoff        WCut        ...    1.0000e-14
Grids for H and He will be reduced by one unit

# of grid points (after initial pruning)     ...  34472 (   0.0 sec)
# of grid points (after weights+screening)   ...  30744 (   0.3 sec)
nearest neighbour list constructed           ...    0.0 sec
Grid point re-assignment to atoms done       ...    0.0 sec
Grid point division into batches done        ...    0.0 sec
Reduced shell lists constructed in    0.4 sec

Total number of grid points                  ...    30744
Total number of batches                      ...      494
Average number of points per batch           ...       62
Average number of grid points per atom       ...     1060
Average number of shells per batch           ...    63.83 (65.80%)
Average number of basis functions per batch  ...   103.79 (69.66%)
Average number of large shells per batch     ...    46.24 (72.45%)
Average number of large basis fcns per batch ...    76.90 (74.09%)
Maximum spatial batch extension              ...  20.73, 20.51, 21.29 au
Average spatial batch extension              ...   3.22,  3.22,  3.33 au

Time for grid setup =    2.200 sec

------------------------------
INITIAL GUESS: MODEL POTENTIAL
------------------------------
Loading Hartree-Fock densities                     ... done
Calculating cut-offs                               ... done
Setting up the integral package                    ... done
Initializing the effective Hamiltonian             ... done
Starting the Coulomb interaction                   ... done (   0.4 sec)
Reading the grid                                   ... done
Mapping shells                                     ... done
Starting the XC term evaluation                    ... done (   0.5 sec)
  promolecular density results
     # of electrons  =    101.998033686
     EX              =    -83.745265800
     EC              =     -3.478022378
     EX+EC           =    -87.223288178
Transforming the Hamiltonian                       ... done (   0.7 sec)
Diagonalizing the Hamiltonian                      ... done (   0.0 sec)
Back transforming the eigenvectors                 ... done (   0.0 sec)
Now organizing SCF variables                       ... done
                      ------------------
                      INITIAL GUESS DONE (   4.0 sec)
                      ------------------
--------------
SCF ITERATIONS
--------------
ITER       Energy         Delta-E        Max-DP      RMS-DP      [F,P]     Damp
               ***  Starting incremental Fock matrix formation  ***
  0   -652.4385779413   0.000000000000 0.07986093  0.00311421  0.2472713 0.7000
  1   -652.5748699992  -0.136292057906 0.05094783  0.00216151  0.0998909 0.7000
                               ***Turning on DIIS***
  2   -652.6262768489  -0.051406849661 0.07209859  0.00348626  0.0301178 0.0000
  3   -652.7111685814  -0.084891732522 0.03421968  0.00144210  0.0546552 0.0000
  4   -652.7281321130  -0.016963531574 0.00892798  0.00043322  0.0127212 0.0000
  5   -652.7290639938  -0.000931880809 0.00265991  0.00013573  0.0038496 0.0000
                      *** Initiating the SOSCF procedure ***
                           *** Shutting down DIIS ***
                      *** Re-Reading the Fockian *** 
                      *** Removing any level shift *** 
ITER      Energy       Delta-E        Grad      Rot      Max-DP    RMS-DP
  6   -652.72913902  -0.0000750310  0.000206  0.000206  0.001088  0.000059
               *** Restarting incremental Fock matrix formation ***
  7   -652.72914177  -0.0000027487  0.000102  0.000225  0.000928  0.000031
  8   -652.72914034   0.0000014373  0.000163  0.000168  0.000553  0.000018
  9   -652.72914287  -0.0000025316  0.000024  0.000058  0.000153  0.000007
 10   -652.72914280   0.0000000699  0.000037  0.000036  0.000106  0.000004
 11   -652.72914292  -0.0000001185  0.000007  0.000006  0.000033  0.000001
 12   -652.72914291   0.0000000025  0.000011  0.000004  0.000021  0.000001
                  ***Gradient check signals convergence***
              ***Rediagonalizing the Fockian in SOSCF/NRSCF***

               *****************************************************
               *                     SUCCESS                       *
               *           SCF CONVERGED AFTER  13 CYCLES          *
               *****************************************************

Setting up the final grid:

General Integration Accuracy     IntAcc      ...  4.670
Radial Grid Type                 RadialGrid  ... Gauss-Chebyshev
Angular Grid (max. acc.)         AngularGrid ... Lebedev-302
Angular grid pruning method      GridPruning ... 3 (G Style)
Weight generation scheme         WeightScheme... Becke
Basis function cutoff            BFCut       ...    1.0000e-11
Integration weight cutoff        WCut        ...    1.0000e-14
Grids for H and He will be reduced by one unit

# of grid points (after initial pruning)     ... 135060 (   0.1 sec)
# of grid points (after weights+screening)   ... 117691 (   1.0 sec)
nearest neighbour list constructed           ...    0.0 sec
Grid point re-assignment to atoms done       ...    0.0 sec
Grid point division into batches done        ...    0.5 sec
Reduced shell lists constructed in    1.6 sec

Total number of grid points                  ...   117691
Total number of batches                      ...     1855
Average number of points per batch           ...       63
Average number of grid points per atom       ...     4058
Average number of shells per batch           ...    58.73 (60.54%)
Average number of basis functions per batch  ...    95.77 (64.27%)
Average number of large shells per batch     ...    41.58 (70.80%)
Average number of large basis fcns per batch ...    69.28 (72.34%)
Maximum spatial batch extension              ...  19.42, 19.45, 16.91 au
Average spatial batch extension              ...   2.14,  2.15,  2.19 au

Final grid set up in    2.9 sec
Final integration                            ... done (   6.4 sec)
Change in XC energy                          ...    -0.000205993
Integrated number of electrons               ...   102.000101242
Previous integrated no of electrons          ...   102.000715424

----------------
TOTAL SCF ENERGY
----------------

Total Energy       :         -652.72934891 Eh          -17761.66857 eV

Components:
Nuclear Repulsion  :          929.29908080 Eh           25287.51358 eV
Electronic Energy  :        -1582.02842971 Eh          -43049.18215 eV
One Electron Energy:        -2736.43582575 Eh          -74462.20440 eV
Two Electron Energy:         1154.40739604 Eh           31413.02225 eV

Virial components:
Potential Energy   :        -1302.12788573 Eh          -35432.70113 eV
Kinetic Energy     :          649.39853682 Eh           17671.03256 eV
Virial Ratio       :            2.00512907


DFT components:
N(Alpha)           :       51.000050620780 electrons
N(Beta)            :       51.000050620780 electrons
N(Total)           :      102.000101241561 electrons
E(X)               :      -67.657549100014 Eh       
E(C)               :       -4.086481283962 Eh       
E(XC)              :      -71.744030383976 Eh       
DFET-embed. en.    :        0.000000000000 Eh       

---------------
SCF CONVERGENCE
---------------

  Last Energy change         ...   -3.7594e-09  Tolerance :   1.0000e-08
  Last MAX-Density change    ...    2.3111e-06  Tolerance :   1.0000e-07
  Last RMS-Density change    ...    9.2692e-08  Tolerance :   5.0000e-09
  Last Orbital Gradient      ...    3.5976e-07  Tolerance :   1.0000e-05
  Last Orbital Rotation      ...    5.8094e-07  Tolerance :   1.0000e-05

             **** THE GBW FILE WAS UPDATED (project_8048/ensemble_330_300.gbw) ****
             **** DENSITY FILE WAS UPDATED (project_8048/ensemble_330_300.scfp) ****
             **** ENERGY FILE WAS UPDATED (project_8048/ensemble_330_300.en.tmp) ****
             **** THE GBW FILE WAS UPDATED (project_8048/ensemble_330_300.gbw) ****
             **** DENSITY FILE WAS UPDATED (project_8048/ensemble_330_300.scfp) ****
----------------
ORBITAL ENERGIES
----------------

  NO   OCC          E(Eh)            E(eV) 
   0   2.0000     -19.147891      -521.0406 
   1   2.0000     -19.143640      -520.9249 
   2   2.0000     -19.138028      -520.7722 
   3   2.0000     -19.137808      -520.7662 
   4   2.0000     -10.264149      -279.3017 
   5   2.0000     -10.241319      -278.6805 
   6   2.0000     -10.234385      -278.4918 
   7   2.0000     -10.232859      -278.4502 
   8   2.0000     -10.227426      -278.3024 
   9   2.0000     -10.218437      -278.0578 
  10   2.0000     -10.189144      -277.2607 
  11   2.0000     -10.186357      -277.1849 
  12   2.0000     -10.180747      -277.0322 
  13   2.0000      -1.044647       -28.4263 
  14   2.0000      -1.021178       -27.7877 
  15   2.0000      -0.961546       -26.1650 
  16   2.0000      -0.957731       -26.0612 
  17   2.0000      -0.793352       -21.5882 
  18   2.0000      -0.785133       -21.3646 
  19   2.0000      -0.774889       -21.0858 
  20   2.0000      -0.726818       -19.7777 
  21   2.0000      -0.681813       -18.5531 
  22   2.0000      -0.630083       -17.1454 
  23   2.0000      -0.599702       -16.3187 
  24   2.0000      -0.591633       -16.0991 
  25   2.0000      -0.560494       -15.2518 
  26   2.0000      -0.529880       -14.4188 
  27   2.0000      -0.505479       -13.7548 
  28   2.0000      -0.491137       -13.3645 
  29   2.0000      -0.473223       -12.8770 
  30   2.0000      -0.460630       -12.5344 
  31   2.0000      -0.452591       -12.3156 
  32   2.0000      -0.447428       -12.1751 
  33   2.0000      -0.422565       -11.4986 
  34   2.0000      -0.416300       -11.3281 
  35   2.0000      -0.403834       -10.9889 
  36   2.0000      -0.394276       -10.7288 
  37   2.0000      -0.384284       -10.4569 
  38   2.0000      -0.373000       -10.1499 
  39   2.0000      -0.365735        -9.9522 
  40   2.0000      -0.357961        -9.7406 
  41   2.0000      -0.349209        -9.5025 
  42   2.0000      -0.346519        -9.4293 
  43   2.0000      -0.325726        -8.8635 
  44   2.0000      -0.319398        -8.6913 
  45   2.0000      -0.307486        -8.3671 
  46   2.0000      -0.293381        -7.9833 
  47   2.0000      -0.260251        -7.0818 
  48   2.0000      -0.258845        -7.0435 
  49   2.0000      -0.242669        -6.6034 
  50   2.0000      -0.232125        -6.3165 
  51   0.0000       0.048566         1.3215 
  52   0.0000       0.061276         1.6674 
  53   0.0000       0.080548         2.1918 
  54   0.0000       0.083910         2.2833 
  55   0.0000       0.100727         2.7409 
  56   0.0000       0.109357         2.9758 
  57   0.0000       0.111242         3.0270 
  58   0.0000       0.128802         3.5049 
  59   0.0000       0.136324         3.7096 
  60   0.0000       0.146889         3.9971 
  61   0.0000       0.151332         4.1179 
  62   0.0000       0.152470         4.1489 
  63   0.0000       0.159514         4.3406 
  64   0.0000       0.165182         4.4948 
  65   0.0000       0.172364         4.6903 
  66   0.0000       0.175572         4.7776 
  67   0.0000       0.184912         5.0317 
  68   0.0000       0.190717         5.1897 
  69   0.0000       0.195297         5.3143 
  70   0.0000       0.201835         5.4922 
  71   0.0000       0.213468         5.8088 
  72   0.0000       0.233539         6.3549 
  73   0.0000       0.244216         6.6454 
  74   0.0000       0.250738         6.8229 
  75   0.0000       0.256303         6.9744 
  76   0.0000       0.276011         7.5106 
  77   0.0000       0.288734         7.8568 
  78   0.0000       0.291506         7.9323 
  79   0.0000       0.296930         8.0799 
  80   0.0000       0.328533         8.9398 
  81   0.0000       0.526149        14.3172 
  82   0.0000       0.538144        14.6436 
  83   0.0000       0.547713        14.9040 
  84   0.0000       0.554188        15.0802 
  85   0.0000       0.570672        15.5288 
  86   0.0000       0.573142        15.5960 
  87   0.0000       0.583353        15.8738 
  88   0.0000       0.590178        16.0596 
  89   0.0000       0.601291        16.3620 
  90   0.0000       0.610863        16.6224 
  91   0.0000       0.622868        16.9491 
  92   0.0000       0.630174        17.1479 
  93   0.0000       0.634263        17.2592 
  94   0.0000       0.641408        17.4536 
  95   0.0000       0.657575        17.8935 
  96   0.0000       0.675328        18.3766 
  97   0.0000       0.697572        18.9819 
  98   0.0000       0.702413        19.1136 
  99   0.0000       0.723474        19.6867 
 100   0.0000       0.761701        20.7269 
 101   0.0000       0.770969        20.9791 
 102   0.0000       0.791921        21.5493 
 103   0.0000       0.811762        22.0892 
 104   0.0000       0.815988        22.2042 
 105   0.0000       0.829252        22.5651 
 106   0.0000       0.846378        23.0311 
 107   0.0000       0.864976        23.5372 
 108   0.0000       0.875531        23.8244 
 109   0.0000       0.883153        24.0318 
 110   0.0000       0.890698        24.2371 
 111   0.0000       0.899695        24.4819 
 112   0.0000       0.901147        24.5215 
 113   0.0000       0.920383        25.0449 
 114   0.0000       0.937452        25.5094 
 115   0.0000       0.944492        25.7009 
 116   0.0000       0.948590        25.8124 
 117   0.0000       0.958314        26.0771 
 118   0.0000       0.973596        26.4929 
 119   0.0000       0.985962        26.8294 
 120   0.0000       0.992045        26.9949 
 121   0.0000       1.031643        28.0724 
 122   0.0000       1.040903        28.3244 
 123   0.0000       1.053420        28.6650 
 124   0.0000       1.075544        29.2670 
 125   0.0000       1.099680        29.9238 
 126   0.0000       1.109514        30.1914 
 127   0.0000       1.152582        31.3633 
 128   0.0000       1.160646        31.5828 
 129   0.0000       1.195285        32.5254 
 130   0.0000       1.209118        32.9018 
 131   0.0000       1.252932        34.0940 
 132   0.0000       1.288027        35.0490 
 133   0.0000       1.314536        35.7703 
 134   0.0000       1.381765        37.5997 
 135   0.0000       1.401976        38.1497 
 136   0.0000       1.421237        38.6738 
 137   0.0000       1.442652        39.2565 
 138   0.0000       1.463947        39.8360 
 139   0.0000       1.524041        41.4713 
 140   0.0000       1.550326        42.1865 
 141   0.0000       1.584903        43.1274 
 142   0.0000       1.648673        44.8627 
 143   0.0000       1.768743        48.1299 
 144   0.0000       1.916988        52.1639 
 145   0.0000       1.935044        52.6552 
 146   0.0000       1.962976        53.4153 
 147   0.0000       2.102283        57.2060 
 148   0.0000       2.224022        60.5187 

                    ********************************
                    * MULLIKEN POPULATION ANALYSIS *
                    ********************************

-----------------------
MULLIKEN ATOMIC CHARGES
-----------------------
   0 C :    0.298155
   1 C :   -0.277449
   2 C :   -0.294381
   3 C :   -0.005253
   4 O :   -0.497241
   5 H :    0.104030
   6 H :    0.144889
   7 H :    0.157361
   8 H :    0.138945
   9 H :    0.159643
  10 H :    0.143545
  11 H :    0.144031
  12 C :   -0.022380
  13 H :    0.159354
  14 H :    0.145068
  15 O :   -0.529759
  16 C :    0.056567
  17 C :    0.088273
  18 C :   -0.306342
  19 C :   -0.065255
  20 O :   -0.476608
  21 H :    0.162625
  22 O :   -0.601991
  23 H :    0.154931
  24 H :    0.153011
  25 H :    0.197694
  26 H :    0.196693
  27 H :    0.121768
  28 H :    0.350075
Sum of atomic charges:   -0.0000000

--------------------------------
MULLIKEN REDUCED ORBITAL CHARGES
--------------------------------
  0 C s       :     3.226900  s :     3.226900
      pz      :     0.768987  p :     2.474944
      px      :     0.681320
      py      :     1.024638
  1 C s       :     3.313910  s :     3.313910
      pz      :     0.985747  p :     2.963539
      px      :     1.024552
      py      :     0.953240
  2 C s       :     3.313875  s :     3.313875
      pz      :     0.909783  p :     2.980506
      px      :     1.083133
      py      :     0.987590
  3 C s       :     3.261210  s :     3.261210
      pz      :     0.937625  p :     2.744043
      px      :     1.060660
      py      :     0.745758
  4 O s       :     3.958987  s :     3.958987
      pz      :     1.313238  p :     4.538254
      px      :     1.720131
      py      :     1.504886
  5 H s       :     0.895970  s :     0.895970
  6 H s       :     0.855111  s :     0.855111
  7 H s       :     0.842639  s :     0.842639
  8 H s       :     0.861055  s :     0.861055
  9 H s       :     0.840357  s :     0.840357
 10 H s       :     0.856455  s :     0.856455
 11 H s       :     0.855969  s :     0.855969
 12 C s       :     3.288258  s :     3.288258
      pz      :     0.907867  p :     2.734122
      px      :     0.979141
      py      :     0.847114
 13 H s       :     0.840646  s :     0.840646
 14 H s       :     0.854932  s :     0.854932
 15 O s       :     3.951441  s :     3.951441
      pz      :     1.620952  p :     4.578318
      px      :     1.277806
      py      :     1.679559
 16 C s       :     3.271671  s :     3.271671
      pz      :     0.991208  p :     2.671762
      px      :     0.713759
      py      :     0.966794
 17 C s       :     3.299046  s :     3.299046
      pz      :     0.914320  p :     2.612681
      px      :     1.018919
      py      :     0.679441
 18 C s       :     3.312113  s :     3.312113
      pz      :     1.004277  p :     2.994229
      px      :     0.892531
      py      :     1.097420
 19 C s       :     3.301146  s :     3.301146
      pz      :     0.696873  p :     2.764109
      px      :     0.955419
      py      :     1.111817
 20 O s       :     3.949710  s :     3.949710
      pz      :     1.414663  p :     4.526898
      px      :     1.293044
      py      :     1.819191
 21 H s       :     0.837375  s :     0.837375
 22 O s       :     3.950353  s :     3.950353
      pz      :     1.898045  p :     4.651638
      px      :     1.496692
      py      :     1.256900
 23 H s       :     0.845069  s :     0.845069
 24 H s       :     0.846989  s :     0.846989
 25 H s       :     0.802306  s :     0.802306
 26 H s       :     0.803307  s :     0.803307
 27 H s       :     0.878232  s :     0.878232
 28 H s       :     0.649925  s :     0.649925


                     *******************************
                     * LOEWDIN POPULATION ANALYSIS *
                     *******************************

----------------------
LOEWDIN ATOMIC CHARGES
----------------------
   0 C :    0.121832
   1 C :   -0.217944
   2 C :   -0.217184
   3 C :   -0.031147
   4 O :   -0.303210
   5 H :    0.139413
   6 H :    0.113749
   7 H :    0.125219
   8 H :    0.111804
   9 H :    0.117876
  10 H :    0.102270
  11 H :    0.103428
  12 C :   -0.042896
  13 H :    0.113739
  14 H :    0.114724
  15 O :   -0.368449
  16 C :    0.010815
  17 C :    0.050402
  18 C :   -0.253665
  19 C :   -0.070762
  20 O :   -0.299229
  21 H :    0.123264
  22 O :   -0.446349
  23 H :    0.121654
  24 H :    0.120886
  25 H :    0.138503
  26 H :    0.143398
  27 H :    0.092043
  28 H :    0.285814

-------------------------------
LOEWDIN REDUCED ORBITAL CHARGES
-------------------------------
  0 C s       :     2.995943  s :     2.995943
      pz      :     0.943564  p :     2.882225
      px      :     0.830848
      py      :     1.107813
  1 C s       :     2.974937  s :     2.974937
      pz      :     1.077397  p :     3.243007
      px      :     1.104444
      py      :     1.061166
  2 C s       :     2.973615  s :     2.973615
      pz      :     1.033535  p :     3.243570
      px      :     1.132236
      py      :     1.077799
  3 C s       :     2.983971  s :     2.983971
      pz      :     1.037976  p :     3.047176
      px      :     1.120353
      py      :     0.888847
  4 O s       :     3.608737  s :     3.608737
      pz      :     1.380388  p :     4.694473
      px      :     1.758851
      py      :     1.555234
  5 H s       :     0.860587  s :     0.860587
  6 H s       :     0.886251  s :     0.886251
  7 H s       :     0.874781  s :     0.874781
  8 H s       :     0.888196  s :     0.888196
  9 H s       :     0.882124  s :     0.882124
 10 H s       :     0.897730  s :     0.897730
 11 H s       :     0.896572  s :     0.896572
 12 C s       :     3.002974  s :     3.002974
      pz      :     0.989135  p :     3.039922
      px      :     1.065140
      py      :     0.985648
 13 H s       :     0.886261  s :     0.886261
 14 H s       :     0.885276  s :     0.885276
 15 O s       :     3.653245  s :     3.653245
      pz      :     1.662617  p :     4.715204
      px      :     1.347562
      py      :     1.705025
 16 C s       :     2.969532  s :     2.969532
      pz      :     1.090183  p :     3.019653
      px      :     0.855380
      py      :     1.074090
 17 C s       :     2.974804  s :     2.974804
      pz      :     1.051759  p :     2.974793
      px      :     1.097349
      py      :     0.825685
 18 C s       :     2.983845  s :     2.983845
      pz      :     1.092355  p :     3.269821
      px      :     1.031516
      py      :     1.145950
 19 C s       :     2.999157  s :     2.999157
      pz      :     0.850060  p :     3.071605
      px      :     1.084304
      py      :     1.137241
 20 O s       :     3.605739  s :     3.605739
      pz      :     1.480850  p :     4.693490
      px      :     1.364364
      py      :     1.848276
 21 H s       :     0.876736  s :     0.876736
 22 O s       :     3.692463  s :     3.692463
      pz      :     1.906131  p :     4.753886
      px      :     1.529935
      py      :     1.317820
 23 H s       :     0.878346  s :     0.878346
 24 H s       :     0.879114  s :     0.879114
 25 H s       :     0.861497  s :     0.861497
 26 H s       :     0.856602  s :     0.856602
 27 H s       :     0.907957  s :     0.907957
 28 H s       :     0.714186  s :     0.714186


                      *****************************
                      * MAYER POPULATION ANALYSIS *
                      *****************************

  NA   - Mulliken gross atomic population
  ZA   - Total nuclear charge
  QA   - Mulliken gross atomic charge
  VA   - Mayer's total valence
  BVA  - Mayer's bonded valence
  FA   - Mayer's free valence

  ATOM       NA         ZA         QA         VA         BVA        FA
  0 C      5.7018     6.0000     0.2982     3.5217     3.5217     0.0000
  1 C      6.2774     6.0000    -0.2774     3.7235     3.7235     0.0000
  2 C      6.2944     6.0000    -0.2944     3.7608     3.7608    -0.0000
  3 C      6.0053     6.0000    -0.0053     3.6579     3.6579     0.0000
  4 O      8.4972     8.0000    -0.4972     1.8101     1.8101    -0.0000
  5 H      0.8960     1.0000     0.1040     0.8964     0.8964    -0.0000
  6 H      0.8551     1.0000     0.1449     0.9317     0.9317    -0.0000
  7 H      0.8426     1.0000     0.1574     0.9379     0.9379     0.0000
  8 H      0.8611     1.0000     0.1389     0.9369     0.9369     0.0000
  9 H      0.8404     1.0000     0.1596     0.9347     0.9347     0.0000
 10 H      0.8565     1.0000     0.1435     0.9272     0.9272    -0.0000
 11 H      0.8560     1.0000     0.1440     0.9292     0.9292     0.0000
 12 C      6.0224     6.0000    -0.0224     3.6331     3.6331    -0.0000
 13 H      0.8406     1.0000     0.1594     0.9308     0.9308     0.0000
 14 H      0.8549     1.0000     0.1451     0.9340     0.9340     0.0000
 15 O      8.5298     8.0000    -0.5298     1.7874     1.7874    -0.0000
 16 C      5.9434     6.0000     0.0566     3.5925     3.5925     0.0000
 17 C      5.9117     6.0000     0.0883     3.6480     3.6480     0.0000
 18 C      6.3063     6.0000    -0.3063     3.6546     3.6546    -0.0000
 19 C      6.0653     6.0000    -0.0653     3.6198     3.6198    -0.0000
 20 O      8.4766     8.0000    -0.4766     1.8105     1.8105     0.0000
 21 H      0.8374     1.0000     0.1626     0.9348     0.9348     0.0000
 22 O      8.6020     8.0000    -0.6020     1.7543     1.7543    -0.0000
 23 H      0.8451     1.0000     0.1549     0.9386     0.9386    -0.0000
 24 H      0.8470     1.0000     0.1530     0.9396     0.9396    -0.0000
 25 H      0.8023     1.0000     0.1977     0.9381     0.9381    -0.0000
 26 H      0.8033     1.0000     0.1967     0.8782     0.8782    -0.0000
 27 H      0.8782     1.0000     0.1218     0.9387     0.9387    -0.0000
 28 H      0.6499     1.0000     0.3501     0.8486     0.8486    -0.0000

  Mayer bond orders larger than 0.100000
B(  0-C ,  1-C ) :   0.9307 B(  0-C ,  4-O ) :   0.8948 B(  0-C ,  5-H ) :   0.8164 
B(  0-C , 15-O ) :   0.8171 B(  1-C ,  2-C ) :   0.9574 B(  1-C ,  6-H ) :   0.9367 
B(  1-C ,  7-H ) :   0.9337 B(  2-C ,  3-C ) :   0.9518 B(  2-C ,  8-H ) :   0.9451 
B(  2-C ,  9-H ) :   0.9449 B(  3-C ,  4-O ) :   0.8329 B(  3-C , 10-H ) :   0.9334 
B(  3-C , 11-H ) :   0.9398 B( 12-C , 13-H ) :   0.9187 B( 12-C , 14-H ) :   0.9277 
B( 12-C , 15-O ) :   0.8667 B( 12-C , 16-C ) :   0.8789 B( 16-C , 17-C ) :   0.9052 
B( 16-C , 20-O ) :   0.8751 B( 16-C , 21-H ) :   0.9199 B( 17-C , 18-C ) :   0.9176 
B( 17-C , 22-O ) :   0.8864 B( 17-C , 23-H ) :   0.9327 B( 18-C , 19-C ) :   0.9207 
B( 18-C , 24-H ) :   0.9329 B( 18-C , 25-H ) :   0.8889 B( 19-C , 20-O ) :   0.8601 
B( 19-C , 26-H ) :   0.8343 B( 19-C , 27-H ) :   0.9317 B( 22-O , 28-H ) :   0.8078 


-------
TIMINGS
-------

Total SCF time: 0 days 0 hours 9 min 51 sec 

Total time                  ....     591.942 sec
Sum of individual times     ....     578.650 sec  ( 97.8%)

Fock matrix formation       ....     566.069 sec  ( 95.6%)
  XC integration            ....     422.879 sec  ( 74.7% of F)
    Basis function eval.    ....       3.679 sec  (  0.9% of XC)
    Density eval.           ....       1.858 sec  (  0.4% of XC)
    XC-Functional eval.     ....       1.521 sec  (  0.4% of XC)
    XC-Potential eval.      ....       1.793 sec  (  0.4% of XC)
Diagonalization             ....       0.094 sec  (  0.0%)
Density matrix formation    ....       0.011 sec  (  0.0%)
Population analysis         ....       2.482 sec  (  0.4%)
Initial guess               ....       1.801 sec  (  0.3%)
Orbital Transformation      ....       0.000 sec  (  0.0%)
Orbital Orthonormalization  ....       0.000 sec  (  0.0%)
DIIS solution               ....       2.684 sec  (  0.5%)
SOSCF solution              ....       0.379 sec  (  0.1%)
Grid generation             ....       5.129 sec  (  0.9%)

-------------------------   --------------------
FINAL SINGLE POINT ENERGY      -652.729348910567
-------------------------   --------------------

------------------------------------------------------------------------------
                         ORCA SCF GRADIENT CALCULATION
------------------------------------------------------------------------------

Gradient of the Kohn-Sham DFT energy:
Kohn-Sham wavefunction type      ... RKS
Hartree-Fock exchange scaling    ...    0.200
Number of operators              ...    1
Number of atoms                  ...   29
Basis set dimensions             ...  149
Integral neglect threshold       ... 2.5e-11
Integral primitive cutoff        ... 2.5e-12

Nuclear repulsion gradient       ... done
One Electron Gradient            ... done
Pre-screening matrix             ... done
Starting the two electron gradient:
Two electron gradient done
Exchange-correlation gradient    ... done

------------------
CARTESIAN GRADIENT
------------------

   1   C   :    0.017392438   -0.058166226   -0.024445457
   2   C   :    0.017408156   -0.006373119   -0.009607255
   3   C   :   -0.001685667   -0.002891602   -0.001934338
   4   C   :   -0.003065732   -0.006839966   -0.000720966
   5   O   :    0.002438181   -0.014960502    0.015547101
   6   H   :    0.026485476   -0.090251960   -0.004352476
   7   H   :    0.000328451    0.003844461    0.000640391
   8   H   :    0.000470486    0.001695284   -0.000928059
   9   H   :   -0.000754615    0.000239336   -0.000501991
  10   H   :   -0.000644084    0.001582040    0.001338459
  11   H   :   -0.000236974    0.001417944    0.001081815
  12   H   :   -0.000246363    0.000880957    0.000158771
  13   C   :   -0.023238087    0.001838505    0.007115930
  14   H   :   -0.001729173   -0.002022545    0.004392771
  15   H   :   -0.004192435   -0.011254406    0.009771805
  16   O   :   -0.005727147    0.010630812   -0.023346755
  17   C   :   -0.001555231   -0.017007496    0.005414836
  18   C   :   -0.013901228    0.029948141    0.001315558
  19   C   :   -0.001577352    0.009123685    0.007909639
  20   C   :   -0.003179244    0.069969588    0.007504177
  21   O   :    0.003883395    0.007529853    0.009497433
  22   H   :    0.001772941    0.001986146    0.001396276
  23   O   :   -0.048506165   -0.003863845   -0.014532813
  24   H   :    0.000723724    0.011308004    0.000679688
  25   H   :    0.001861760    0.003764230   -0.002525931
  26   H   :    0.004538274    0.005257251    0.000870772
  27   H   :   -0.026002986    0.087814276   -0.005899715
  28   H   :    0.002278568    0.004310877    0.000023812
  29   H   :    0.056660633   -0.039509723    0.014136519

Difference to translation invariance:
           :    0.0000000000   -0.0000000000   -0.0000000001

Norm of the cartesian gradient     ...    0.1964709048
RMS gradient                       ...    0.0210638920
MAX gradient                       ...    0.0902519597

-------
TIMINGS
-------

Total SCF gradient time            ...       32.473 sec

One electron gradient       ....       0.341 sec  (  1.1%)
Prescreening matrices       ....       0.069 sec  (  0.2%)
Two electron gradient       ....      20.469 sec  ( 63.0%)
XC gradient                 ....      10.505 sec  ( 32.4%)
------------------------------------------------------------------------------
                         ORCA GEOMETRY RELAXATION STEP
------------------------------------------------------------------------------

Reading the OPT-File                    .... done
Getting information on internals        .... done
Copying old internal coords+grads       .... done
Making the new internal coordinates     .... (new redundants).... done
Validating the new internal coordinates .... (new redundants).... done
Calculating the B-matrix                .... done
Calculating the G,G- and P matrices     .... done
Transforming gradient to internals      .... done
Projecting the internal gradient        .... done
Number of atoms                         ....  29
Number of internal coordinates          .... 172
Current Energy                          ....  -652.729348911 Eh
Current gradient norm                   ....     0.196470905 Eh/bohr
Maximum allowed component of the step   ....  0.300
Current trust radius                    ....  0.300
Evaluating the initial hessian          ....  (Almloef) done
Projecting the Hessian                  .... done
Forming the augmented Hessian           .... done
Diagonalizing the augmented Hessian     .... done
Last element of RFO vector              ....  0.753379563
Lowest eigenvalues of augmented Hessian:
 -0.853520701  0.007792111  0.033069977  0.033297947  0.038479226
Length of the computed step             ....  0.872848091
Warning: the length of the step is outside the trust region - taking restricted step instead
The input lambda is                     ....    -0.853521
   iter:   1  x=   -1.342335  g=    1.374477 f(x)=     0.671864
   iter:   2  x=   -1.949972  g=    0.457656 f(x)=     0.278089
   iter:   3  x=   -2.546016  g=    0.174694 f(x)=     0.104125
   iter:   4  x=   -2.905214  g=    0.085577 f(x)=     0.030739
   iter:   5  x=   -2.989207  g=    0.059716 f(x)=     0.005016
   iter:   6  x=   -2.992684  g=    0.055222 f(x)=     0.000192
   iter:   7  x=   -2.992690  g=    0.055046 f(x)=     0.000000
   iter:   8  x=   -2.992690  g=    0.055045 f(x)=     0.000000
   iter:   9  x=   -2.992690  g=    0.055045 f(x)=     0.000000
The output lambda is                    ....    -2.992690 (9 iterations)
The final length of the internal step   ....  0.300000000
Converting the step to cartesian space:
 Initial RMS(Int)=    0.0228747855
Transforming coordinates:
 Iter   0:  RMS(Cart)=    0.3745147963 RMS(Int)=    0.0252897220
 Iter   1:  RMS(Cart)=    0.0291410885 RMS(Int)=    0.0119349708
 Iter   2:  RMS(Cart)=    0.0074582439 RMS(Int)=    0.0012410790
 Iter   3:  RMS(Cart)=    0.0010460589 RMS(Int)=    0.0004900590
 Iter   4:  RMS(Cart)=    0.0002563242 RMS(Int)=    0.0000481126
 Iter   5:  RMS(Cart)=    0.0000374104 RMS(Int)=    0.0000178759
 Iter   6:  RMS(Cart)=    0.0000082924 RMS(Int)=    0.0000017689
 Iter   7:  RMS(Cart)=    0.0000012843 RMS(Int)=    0.0000005963
 Iter   8:  RMS(Cart)=    0.0000002599 RMS(Int)=    0.0000000651
 Iter   9:  RMS(Cart)=    0.0000000421 RMS(Int)=    0.0000000187
Imposing constraints:
[...]
  29   2.0000      -0.480278       -13.0690 
  30   2.0000      -0.471562       -12.8319 
  31   2.0000      -0.461784       -12.5658 
  32   2.0000      -0.448710       -12.2100 
  33   2.0000      -0.434813       -11.8319 
  34   2.0000      -0.418565       -11.3897 
  35   2.0000      -0.412114       -11.2142 
  36   2.0000      -0.396796       -10.7974 
  37   2.0000      -0.389940       -10.6108 
  38   2.0000      -0.374751       -10.1975 
  39   2.0000      -0.369397       -10.0518 
  40   2.0000      -0.361576        -9.8390 
  41   2.0000      -0.357405        -9.7255 
  42   2.0000      -0.345599        -9.4042 
  43   2.0000      -0.331230        -9.0132 
  44   2.0000      -0.326188        -8.8760 
  45   2.0000      -0.304610        -8.2889 
  46   2.0000      -0.292636        -7.9630 
  47   2.0000      -0.268681        -7.3112 
  48   2.0000      -0.266448        -7.2504 
  49   2.0000      -0.254948        -6.9375 
  50   2.0000      -0.234562        -6.3828 
  51   0.0000       0.066206         1.8016 
  52   0.0000       0.081085         2.2064 
  53   0.0000       0.094392         2.5685 
  54   0.0000       0.102733         2.7955 
  55   0.0000       0.106461         2.8969 
  56   0.0000       0.111458         3.0329 
  57   0.0000       0.113859         3.0983 
  58   0.0000       0.132252         3.5988 
  59   0.0000       0.136532         3.7152 
  60   0.0000       0.143340         3.9005 
  61   0.0000       0.156199         4.2504 
  62   0.0000       0.157546         4.2870 
  63   0.0000       0.162045         4.4095 
  64   0.0000       0.167892         4.5686 
  65   0.0000       0.171916         4.6781 
  66   0.0000       0.181737         4.9453 
  67   0.0000       0.184196         5.0122 
  68   0.0000       0.198520         5.4020 
  69   0.0000       0.206527         5.6199 
  70   0.0000       0.220419         5.9979 
  71   0.0000       0.223850         6.0913 
  72   0.0000       0.226324         6.1586 
  73   0.0000       0.243690         6.6311 
  74   0.0000       0.250159         6.8072 
  75   0.0000       0.261365         7.1121 
  76   0.0000       0.266268         7.2455 
  77   0.0000       0.272898         7.4259 
  78   0.0000       0.298479         8.1220 
  79   0.0000       0.305332         8.3085 
  80   0.0000       0.325580         8.8595 
  81   0.0000       0.506223        13.7750 
  82   0.0000       0.531163        14.4537 
  83   0.0000       0.543665        14.7939 
  84   0.0000       0.552063        15.0224 
  85   0.0000       0.553640        15.0653 
  86   0.0000       0.573181        15.5970 
  87   0.0000       0.580961        15.8087 
  88   0.0000       0.589623        16.0445 
  89   0.0000       0.596143        16.2219 
  90   0.0000       0.600902        16.3514 
  91   0.0000       0.618323        16.8254 
  92   0.0000       0.626869        17.0580 
  93   0.0000       0.629774        17.1370 
  94   0.0000       0.643303        17.5052 
  95   0.0000       0.650971        17.7138 
  96   0.0000       0.659240        17.9388 
  97   0.0000       0.681513        18.5449 
  98   0.0000       0.711555        19.3624 
  99   0.0000       0.724877        19.7249 
 100   0.0000       0.747567        20.3423 
 101   0.0000       0.765302        20.8249 
 102   0.0000       0.798368        21.7247 
 103   0.0000       0.819097        22.2888 
 104   0.0000       0.826371        22.4867 
 105   0.0000       0.836959        22.7748 
 106   0.0000       0.852408        23.1952 
 107   0.0000       0.860265        23.4090 
 108   0.0000       0.871741        23.7213 
 109   0.0000       0.878365        23.9015 
 110   0.0000       0.882782        24.0217 
 111   0.0000       0.892347        24.2820 
 112   0.0000       0.903651        24.5896 
 113   0.0000       0.912643        24.8343 
 114   0.0000       0.928567        25.2676 
 115   0.0000       0.933435        25.4001 
 116   0.0000       0.943193        25.6656 
 117   0.0000       0.960769        26.1438 
 118   0.0000       0.969619        26.3847 
 119   0.0000       0.976007        26.5585 
 120   0.0000       0.995320        27.0840 
 121   0.0000       1.007548        27.4168 
 122   0.0000       1.017300        27.6821 
 123   0.0000       1.030145        28.0317 
 124   0.0000       1.058546        28.8045 
 125   0.0000       1.076704        29.2986 
 126   0.0000       1.101220        29.9657 
 127   0.0000       1.118576        30.4380 
 128   0.0000       1.123203        30.5639 
 129   0.0000       1.137170        30.9440 
 130   0.0000       1.177163        32.0322 
 131   0.0000       1.226218        33.3671 
 132   0.0000       1.249574        34.0026 
 133   0.0000       1.303881        35.4804 
 134   0.0000       1.339365        36.4460 
 135   0.0000       1.373511        37.3751 
 136   0.0000       1.410452        38.3803 
 137   0.0000       1.419588        38.6290 
 138   0.0000       1.458948        39.7000 
 139   0.0000       1.473128        40.0858 
 140   0.0000       1.520935        41.3867 
 141   0.0000       1.555796        42.3354 
 142   0.0000       1.680628        45.7322 
 143   0.0000       1.733208        47.1630 
 144   0.0000       1.778956        48.4078 
 145   0.0000       1.887712        51.3672 
 146   0.0000       1.965750        53.4908 
 147   0.0000       2.077558        56.5332 
 148   0.0000       2.167300        58.9752 

                    ********************************
                    * MULLIKEN POPULATION ANALYSIS *
                    ********************************

-----------------------
MULLIKEN ATOMIC CHARGES
-----------------------
   0 C :    0.312810
   1 C :   -0.258465
   2 C :   -0.298081
   3 C :   -0.015025
   4 O :   -0.502776
   5 H :    0.131768
   6 H :    0.142354
   7 H :    0.157953
   8 H :    0.142095
   9 H :    0.157672
  10 H :    0.147150
  11 H :    0.148136
  12 C :   -0.001446
  13 H :    0.144212
  14 H :    0.148822
  15 O :   -0.544938
  16 C :    0.073863
  17 C :    0.073162
  18 C :   -0.298350
  19 C :   -0.027619
  20 O :   -0.512643
  21 H :    0.154820
  22 O :   -0.602583
  23 H :    0.153640
  24 H :    0.157974
  25 H :    0.156621
  26 H :    0.156606
  27 H :    0.139663
  28 H :    0.362605
Sum of atomic charges:    0.0000000

--------------------------------
MULLIKEN REDUCED ORBITAL CHARGES
--------------------------------
  0 C s       :     3.188023  s :     3.188023
      pz      :     0.851150  p :     2.499167
      px      :     0.668159
      py      :     0.979858
  1 C s       :     3.304588  s :     3.304588
      pz      :     0.964584  p :     2.953877
      px      :     1.057810
      py      :     0.931482
  2 C s       :     3.313717  s :     3.313717
      pz      :     0.924356  p :     2.984364
      px      :     1.073088
      py      :     0.986920
  3 C s       :     3.267320  s :     3.267320
      pz      :     0.901863  p :     2.747706
      px      :     1.070570
      py      :     0.775273
  4 O s       :     3.946300  s :     3.946300
      pz      :     1.313812  p :     4.556476
      px      :     1.692216
      py      :     1.550448
  5 H s       :     0.868232  s :     0.868232
  6 H s       :     0.857646  s :     0.857646
  7 H s       :     0.842047  s :     0.842047
  8 H s       :     0.857905  s :     0.857905
  9 H s       :     0.842328  s :     0.842328
 10 H s       :     0.852850  s :     0.852850
 11 H s       :     0.851864  s :     0.851864
 12 C s       :     3.259550  s :     3.259550
      pz      :     0.943235  p :     2.741896
      px      :     0.959579
      py      :     0.839083
 13 H s       :     0.855788  s :     0.855788
 14 H s       :     0.851178  s :     0.851178
 15 O s       :     3.913049  s :     3.913049
      pz      :     1.702852  p :     4.631890
      px      :     1.294833
      py      :     1.634204
 16 C s       :     3.255688  s :     3.255688
      pz      :     0.984814  p :     2.670450
      px      :     0.743136
      py      :     0.942499
 17 C s       :     3.267320  s :     3.267320
      pz      :     0.924011  p :     2.659518
      px      :     1.003479
      py      :     0.732028
 18 C s       :     3.314336  s :     3.314336
      pz      :     0.991829  p :     2.984014
      px      :     0.910885
      py      :     1.081299
 19 C s       :     3.272877  s :     3.272877
      pz      :     0.688289  p :     2.754742
      px      :     0.985571
      py      :     1.080882
 20 O s       :     3.947396  s :     3.947396
      pz      :     1.428655  p :     4.565246
      px      :     1.377430
      py      :     1.759162
 21 H s       :     0.845180  s :     0.845180
 22 O s       :     3.920277  s :     3.920277
      pz      :     1.804446  p :     4.682306
      px      :     1.613842
      py      :     1.264018
 23 H s       :     0.846360  s :     0.846360
 24 H s       :     0.842026  s :     0.842026
 25 H s       :     0.843379  s :     0.843379
 26 H s       :     0.843394  s :     0.843394
 27 H s       :     0.860337  s :     0.860337
 28 H s       :     0.637395  s :     0.637395


                     *******************************
                     * LOEWDIN POPULATION ANALYSIS *
                     *******************************

----------------------
LOEWDIN ATOMIC CHARGES
----------------------
   0 C :    0.177919
   1 C :   -0.215375
   2 C :   -0.216975
   3 C :   -0.030207
   4 O :   -0.314106
   5 H :    0.091396
   6 H :    0.112122
   7 H :    0.124801
   8 H :    0.114579
   9 H :    0.116866
  10 H :    0.104032
  11 H :    0.105447
  12 C :   -0.037398
  13 H :    0.102906
  14 H :    0.116257
  15 O :   -0.340870
  16 C :    0.003993
  17 C :    0.035050
  18 C :   -0.241968
  19 C :   -0.037204
  20 O :   -0.317143
  21 H :    0.117075
  22 O :   -0.416986
  23 H :    0.116130
  24 H :    0.124041
  25 H :    0.118624
  26 H :    0.106069
  27 H :    0.099507
  28 H :    0.281418

-------------------------------
LOEWDIN REDUCED ORBITAL CHARGES
-------------------------------
  0 C s       :     2.949748  s :     2.949748
      pz      :     0.959609  p :     2.872333
      px      :     0.837950
      py      :     1.074775
  1 C s       :     2.977764  s :     2.977764
      pz      :     1.067882  p :     3.237611
      px      :     1.118148
      py      :     1.051581
  2 C s       :     2.970838  s :     2.970838
      pz      :     1.041750  p :     3.246137
      px      :     1.127055
      py      :     1.077331
  3 C s       :     2.986099  s :     2.986099
      pz      :     1.003315  p :     3.044108
      px      :     1.130341
      py      :     0.910451
  4 O s       :     3.601984  s :     3.601984
      pz      :     1.381129  p :     4.712122
      px      :     1.734161
      py      :     1.596831
  5 H s       :     0.908604  s :     0.908604
  6 H s       :     0.887878  s :     0.887878
  7 H s       :     0.875199  s :     0.875199
  8 H s       :     0.885421  s :     0.885421
  9 H s       :     0.883134  s :     0.883134
 10 H s       :     0.895968  s :     0.895968
 11 H s       :     0.894553  s :     0.894553
 12 C s       :     2.978821  s :     2.978821
      pz      :     1.025343  p :     3.058577
      px      :     1.043690
      py      :     0.989545
 13 H s       :     0.897094  s :     0.897094
 14 H s       :     0.883743  s :     0.883743
 15 O s       :     3.570999  s :     3.570999
      pz      :     1.741921  p :     4.769872
      px      :     1.370502
      py      :     1.657449
 16 C s       :     2.965317  s :     2.965317
      pz      :     1.088271  p :     3.030690
      px      :     0.881943
      py      :     1.060476
 17 C s       :     2.956027  s :     2.956027
      pz      :     1.055724  p :     3.008924
      px      :     1.073793
      py      :     0.879406
 18 C s       :     2.984602  s :     2.984602
      pz      :     1.086215  p :     3.257366
      px      :     1.040345
      py      :     1.130806
 19 C s       :     2.984236  s :     2.984236
      pz      :     0.836838  p :     3.052968
      px      :     1.078879
      py      :     1.137250
 20 O s       :     3.598384  s :     3.598384
      pz      :     1.486518  p :     4.718759
      px      :     1.440509
      py      :     1.791731
 21 H s       :     0.882925  s :     0.882925
 22 O s       :     3.615641  s :     3.615641
      pz      :     1.818274  p :     4.801345
      px      :     1.654058
      py      :     1.329013
 23 H s       :     0.883870  s :     0.883870
 24 H s       :     0.875959  s :     0.875959
 25 H s       :     0.881376  s :     0.881376
 26 H s       :     0.893931  s :     0.893931
 27 H s       :     0.900493  s :     0.900493
 28 H s       :     0.718582  s :     0.718582


                      *****************************
                      * MAYER POPULATION ANALYSIS *
                      *****************************

  NA   - Mulliken gross atomic population
  ZA   - Total nuclear charge
  QA   - Mulliken gross atomic charge
  VA   - Mayer's total valence
  BVA  - Mayer's bonded valence
  FA   - Mayer's free valence

  ATOM       NA         ZA         QA         VA         BVA        FA
  0 C      5.6872     6.0000     0.3128     3.6493     3.6493     0.0000
  1 C      6.2585     6.0000    -0.2585     3.7243     3.7243     0.0000
  2 C      6.2981     6.0000    -0.2981     3.7656     3.7656    -0.0000
  3 C      6.0150     6.0000    -0.0150     3.6604     3.6604     0.0000
  4 O      8.5028     8.0000    -0.5028     1.7980     1.7980    -0.0000
  5 H      0.8682     1.0000     0.1318     0.9330     0.9330    -0.0000
  6 H      0.8576     1.0000     0.1424     0.9339     0.9339    -0.0000
  7 H      0.8420     1.0000     0.1580     0.9398     0.9398    -0.0000
  8 H      0.8579     1.0000     0.1421     0.9371     0.9371     0.0000
  9 H      0.8423     1.0000     0.1577     0.9351     0.9351    -0.0000
 10 H      0.8529     1.0000     0.1471     0.9264     0.9264    -0.0000
 11 H      0.8519     1.0000     0.1481     0.9288     0.9288    -0.0000
 12 C      6.0014     6.0000    -0.0014     3.6468     3.6468    -0.0000
 13 H      0.8558     1.0000     0.1442     0.9304     0.9304    -0.0000
 14 H      0.8512     1.0000     0.1488     0.9329     0.9329    -0.0000
 15 O      8.5449     8.0000    -0.5449     1.7383     1.7383     0.0000
 16 C      5.9261     6.0000     0.0739     3.5819     3.5819     0.0000
 17 C      5.9268     6.0000     0.0732     3.6494     3.6494     0.0000
 18 C      6.2983     6.0000    -0.2983     3.6907     3.6907     0.0000
 19 C      6.0276     6.0000    -0.0276     3.6610     3.6610     0.0000
 20 O      8.5126     8.0000    -0.5126     1.7865     1.7865    -0.0000
 21 H      0.8452     1.0000     0.1548     0.9325     0.9325     0.0000
 22 O      8.6026     8.0000    -0.6026     1.7424     1.7424     0.0000
 23 H      0.8464     1.0000     0.1536     0.9367     0.9367     0.0000
 24 H      0.8420     1.0000     0.1580     0.9398     0.9398    -0.0000
 25 H      0.8434     1.0000     0.1566     0.9375     0.9375    -0.0000
 26 H      0.8434     1.0000     0.1566     0.9284     0.9284    -0.0000
 27 H      0.8603     1.0000     0.1397     0.9299     0.9299     0.0000
 28 H      0.6374     1.0000     0.3626     0.8334     0.8334     0.0000

  Mayer bond orders larger than 0.100000
B(  0-C ,  1-C ) :   0.9414 B(  0-C ,  4-O ) :   0.9148 B(  0-C ,  5-H ) :   0.9096 
B(  0-C , 15-O ) :   0.8376 B(  1-C ,  2-C ) :   0.9552 B(  1-C ,  6-H ) :   0.9389 
B(  1-C ,  7-H ) :   0.9357 B(  2-C ,  3-C ) :   0.9536 B(  2-C ,  8-H ) :   0.9453 
B(  2-C ,  9-H ) :   0.9448 B(  3-C ,  4-O ) :   0.8347 B(  3-C , 10-H ) :   0.9339 
B(  3-C , 11-H ) :   0.9399 B( 12-C , 13-H ) :   0.9230 B( 12-C , 14-H ) :   0.9302 
B( 12-C , 15-O ) :   0.8603 B( 12-C , 16-C ) :   0.8809 B( 16-C , 17-C ) :   0.9041 
B( 16-C , 20-O ) :   0.8753 B( 16-C , 21-H ) :   0.9137 B( 17-C , 18-C ) :   0.9193 
B( 17-C , 22-O ) :   0.8925 B( 17-C , 23-H ) :   0.9349 B( 18-C , 19-C ) :   0.9426 
B( 18-C , 24-H ) :   0.9368 B( 18-C , 25-H ) :   0.9255 B( 19-C , 20-O ) :   0.8424 
B( 19-C , 26-H ) :   0.9198 B( 19-C , 27-H ) :   0.9377 B( 22-O , 28-H ) :   0.7958 


-------
TIMINGS
-------

Total SCF time: 0 days 0 hours 2 min 20 sec 

Total time                  ....     140.635 sec
Sum of individual times     ....     121.140 sec  ( 86.1%)

Fock matrix formation       ....     115.795 sec  ( 82.3%)
  XC integration            ....      40.811 sec  ( 35.2% of F)
    Basis function eval.    ....       2.227 sec  (  5.5% of XC)
    Density eval.           ....       1.392 sec  (  3.4% of XC)
    XC-Functional eval.     ....       0.831 sec  (  2.0% of XC)
    XC-Potential eval.      ....       0.893 sec  (  2.2% of XC)
Diagonalization             ....       0.029 sec  (  0.0%)
Density matrix formation    ....       0.006 sec  (  0.0%)
Population analysis         ....       0.298 sec  (  0.2%)
Initial guess               ....       0.005 sec  (  0.0%)
Orbital Transformation      ....       0.000 sec  (  0.0%)
Orbital Orthonormalization  ....       0.002 sec  (  0.0%)
DIIS solution               ....       0.001 sec  (  0.0%)
SOSCF solution              ....       0.631 sec  (  0.4%)
Grid generation             ....       4.374 sec  (  3.1%)

-------------------------   --------------------
FINAL SINGLE POINT ENERGY      -652.855086099399
-------------------------   --------------------

                                *** OPTIMIZATION RUN DONE ***

                            ***************************************
                            *     ORCA property calculations      *
                            ***************************************

                                    ---------------------
                                    Active property flags
                                    ---------------------
   (+) Dipole Moment


------------------------------------------------------------------------------
                       ORCA ELECTRIC PROPERTIES CALCULATION
------------------------------------------------------------------------------

Dipole Moment Calculation                       ... on
Quadrupole Moment Calculation                   ... off
Polarizability Calculation                      ... off
GBWName                                         ... project_8048/ensemble_330_300.gbw
Electron density file                           ... project_8048/ensemble_330_300.scfp
The origin for moment calculation is the CENTER OF MASS  = (-41.182786, 47.637395 87.968099)

-------------
DIPOLE MOMENT
-------------
                                X             Y             Z
Electronic contribution:     -2.07108      -4.42926       0.62026
Nuclear contribution   :      2.57633       5.31424      -0.67524
                        -----------------------------------------
Total Dipole Moment    :      0.50525       0.88498      -0.05498
                        -----------------------------------------
Magnitude (a.u.)       :      1.02054
Magnitude (Debye)      :      2.59400



--------------------
Rotational spectrum 
--------------------
 
Rotational constants in cm-1:     0.061627     0.015023     0.014743 
Rotational constants in MHz :  1847.545413   450.379284   441.969742 

 Dipole components along the rotational axes: 
x,y,z [a.u.] :    -0.967260    -0.027421    -0.324269 
x,y,z [Debye]:    -2.458579    -0.069699    -0.824225 

 

Timings for individual modules:

Sum of individual times         ...     3457.712 sec (=  57.629 min)
GTO integral calculation        ...       41.339 sec (=   0.689 min)   1.2 %
SCF iterations                  ...     3061.313 sec (=  51.022 min)  88.5 %
SCF Gradient evaluation         ...      326.397 sec (=   5.440 min)   9.4 %
Geometry relaxation             ...       28.662 sec (=   0.478 min)   0.8 %
                             ****ORCA TERMINATED NORMALLY****
TOTAL RUN TIME: 0 days 0 hours 58 minutes 40 seconds 849 msec
