
                                 *****************
                                 * O   R   C   A *
                                 *****************

           --- An Ab Initio, DFT and Semiempirical electronic structure package ---

                  #######################################################
                  #                        -***-                        #
                  #          Department of theory and spectroscopy      #
                  #               Directorship: Frank Neese             #
                  #        Max Planck Institute fuer Kohlenforschung    #
                  #                Kaiser Wilhelm Platz 1               #
                  #                 D-45470 Muelheim/Ruhr               #
                  #                      Germany                        #
                  #                                                     #
                  #                  All rights reserved                #
                  #                        -***-                        #
                  #######################################################


                         Program Version 4.2.0 -  RELEASE  -


 With contributions from (in alphabetic order):
   Daniel Aravena         : Magnetic Suceptibility
   Michael Atanasov       : Ab Initio Ligand Field Theory (pilot matlab implementation)
   Alexander A. Auer      : GIAO ZORA, VPT2
   Ute Becker             : Parallelization
   Giovanni Bistoni       : ED, misc. LED, open-shell LED, HFLED
   Martin Brehm           : Molecular dynamics
   Dmytro Bykov           : SCF Hessian
   Vijay G. Chilkuri      : MRCI spin determinant printing, contributions to CSF-ICE
   Dipayan Datta          : RHF DLPNO-CCSD density
   Achintya Kumar Dutta   : EOM-CC, STEOM-CC
   Dmitry Ganyushin       : Spin-Orbit,Spin-Spin,Magnetic field MRCI
   Miquel Garcia          : C-PCM Hessian, Gaussian charge scheme
   Yang Guo               : DLPNO-NEVPT2, CIM, IAO-localization
   Andreas Hansen         : Spin unrestricted coupled pair/coupled cluster methods
   Benjamin Helmich-Paris : CASSCF linear response (MC-RPA)
   Lee Huntington         : MR-EOM, pCC
   Robert Izsak           : Overlap fitted RIJCOSX, COSX-SCS-MP3, EOM
   Christian Kollmar      : KDIIS, OOCD, Brueckner-CCSD(T), CCSD density
   Simone Kossmann        : Meta GGA functionals, TD-DFT gradient, OOMP2, MP2 Hessian
   Martin Krupicka        : AUTO-CI
   Lucas Lang             : DCDCAS
   Dagmar Lenk            : GEPOL surface, SMD
   Dimitrios Liakos       : Extrapolation schemes; Compound Job, initial MDCI parallelization
   Dimitrios Manganas     : Further ROCIS development; embedding schemes
   Dimitrios Pantazis     : SARC Basis sets
   Taras Petrenko         : DFT Hessian,TD-DFT gradient, ASA, ECA, R-Raman, ABS, FL, XAS/XES, NRVS
   Peter Pinski           : DLPNO-MP2, DLPNO-MP2 Gradient
   Christoph Reimann      : Effective Core Potentials
   Marius Retegan         : Local ZFS, SOC
   Christoph Riplinger    : Optimizer, TS searches, QM/MM, DLPNO-CCSD(T), (RO)-DLPNO pert. Triples
   Tobias Risthaus        : Range-separated hybrids, TD-DFT gradient, RPA, STAB
   Michael Roemelt        : Original ROCIS implementation
   Masaaki Saitow         : Open-shell DLPNO-CCSD energy and density
   Barbara Sandhoefer     : DKH picture change effects
   Avijit Sen             : IP-ROCIS
   Kantharuban Sivalingam : CASSCF convergence, NEVPT2, FIC-MRCI
   Bernardo de Souza      : ESD, SOC TD-DFT
   Georgi Stoychev        : AutoAux, RI-MP2 NMR
   Willem Van den Heuvel  : Paramagnetic NMR
   Boris Wezisla          : Elementary symmetry handling
   Frank Wennmohs         : Technical directorship


 We gratefully acknowledge several colleagues who have allowed us to
 interface, adapt or use parts of their codes:
   Stefan Grimme, W. Hujo, H. Kruse,             : VdW corrections, initial TS optimization,
                  C. Bannwarth                     DFT functionals, gCP, sTDA/sTD-DF
   Ed Valeev, F. Pavosevic, A. Kumar             : LibInt (2-el integral package), F12 methods
   Garnet Chan, S. Sharma, J. Yang, R. Olivares  : DMRG
   Ulf Ekstrom                                   : XCFun DFT Library
   Mihaly Kallay                                 : mrcc  (arbitrary order and MRCC methods)
   Andreas Klamt, Michael Diedenhofen            : otool_cosmo (COSMO solvation model)
   Jiri Pittner, Ondrej Demel                    : Mk-CCSD
   Frank Weinhold                                : gennbo (NPA and NBO analysis)
   Christopher J. Cramer and Donald G. Truhlar   : smd solvation model
   Lars Goerigk                                  : TD-DFT with DH, B97 family of functionals
   V. Asgeirsson, H. Jonsson                     : NEB implementation
   FAccTs GmbH                                   : IRC, NEB, NEB-TS, Multilevel, MM, QM/MM, CI optimization
   S Lehtola, MJT Oliveira, MAL Marques          : LibXC Library


 Your calculation uses the libint2 library for the computation of 2-el integrals
 For citations please refer to: http://libint.valeyev.net

 Your ORCA version has been built with support for libXC version: 4.2.3
 For citations please refer to: https://tddft.org/programs/libxc/

 This ORCA versions uses:
   CBLAS   interface :  Fast vector & matrix operations
   LAPACKE interface :  Fast linear algebra routines
   SCALAPACK package :  Parallel linear algebra routines


----- Orbital basis set information -----
Your calculation utilizes the basis: 6-31G
   H-He, Li-Ne : W. J. Hehre, R. Ditchfield and J.A. Pople, J. Chem. Phys. 56, 2257 (1972).
                 Note: He and Ne are unpublished basis sets taken from the Gaussian program.
                 Note: Li and B from J. D. Dill and J. A. Pople, J. Chem. Phys. 62, 2921 (1975).
   Na - Ar     : M. M. Francl, W. J. Pietro, W. J. Hehre, J. S. Binkley, M. S. Gordon, 
                 D. J. DeFrees and J. A. Pople, J. Chem. Phys. 77, 3654 (1982).
   K - Zn      : V. A. Rassolov, J. A. Pople, M. A. Ratner, and T. L. Windus, J. Chem. Phys. 109, 1223 (1998).

================================================================================
                                        WARNINGS
                       Please study these warnings very carefully!
================================================================================


WARNING: Geometry Optimization
  ===> : Switching off AutoStart
         For restart on a previous wavefunction, please use MOREAD

INFO   : the flag for use of LIBINT has been found!

================================================================================
                                       INPUT FILE
================================================================================
NAME = project_8053/ensemble_150_75.inp
|  1> # Test redundant internal optimization
|  2> #
|  3> ! RKS B3LYP  Opt TightSCF SmallPrint
|  4> 
|  5> %basis
|  6>         Basis "6-31G"
|  7> end
|  8> 
|  9> %geom
| 10> Constraints
| 11> { D 4  0  15  12  150.0   C } # D for Dihedral angle
| 12> { D 0  15  12  16  75.0   C } # D for Dihedral angle
| 13> { D 0  4  3  2   C } # D for Dihedral angle
| 14> { D 4  3  2  1   C } # D for Dihedral angle
| 15> { D 3  2  1  0   C } # D for Dihedral angle
| 16> { D 2  1  0  4   C } # D for Dihedral angle
| 17> { D 1  0  4  3   C } # D for Dihedral angle
| 18> { D 16  20  19  18   C } # D for Dihedral angle
| 19> { D 20  19  18  17   C } # D for Dihedral angle
| 20> { D 19  18  17  16   C } # D for Dihedral angle
| 21> { D 18  17  16  20   C } # D for Dihedral angle
| 22> { D 17  16  20  19   C } # D for Dihedral angle
| 23> { D 15  12  16  20   C } # D for Dihedral angle
| 24> end
| 25> end
| 26> 
| 27> 
| 28> #%pal 
| 29> #nprocs 8
| 30> #end
| 31> 
| 32> * xyz 0 1
| 33> C  -21.048   26.222   46.251
| 34> C  -20.361   27.558   45.944
| 35> C  -20.329   28.222   47.341
| 36> C  -20.110   27.022   48.296
| 37> O  -20.473   25.807   47.535
| 38> H  -20.833   25.428   45.533
| 39> H  -19.344   27.382   45.576
| 40> H  -20.898   28.157   45.201
| 41> H  -19.543   28.978   47.434
| 42> H  -21.289   28.710   47.548
| 43> H  -20.733   27.082   49.195
| 44> H  -19.064   26.913   48.597
| 45> C  -23.210   27.459   45.431
| 46> H  -24.222   27.701   45.779
| 47> H  -22.613   28.380   45.444
| 48> O  -22.586   26.394   46.375
| 49> C  -23.301   26.975   43.958
| 50> C  -23.812   28.089   43.037
| 51> C  -22.537   28.942   42.840
| 52> C  -21.405   27.885   42.827
| 53> O  -21.967   26.661   43.437
| 54> H  -23.885   26.053   43.919
| 55> H  -24.146   27.666   42.083
| 56> O  -24.988   28.897   43.652
| 57> H  -22.562   29.537   41.921
| 58> H  -22.411   29.632   43.682
| 59> H  -20.528   28.202   43.403
| 60> H  -21.088   27.624   41.813
| 61> H  -24.677   29.331   44.608
| 62> *
| 63> 
| 64>                          ****END OF INPUT****
================================================================================

                       *****************************
                       * Geometry Optimization Run *
                       *****************************

Geometry optimization settings:
Update method            Update   .... BFGS
Choice of coordinates    CoordSys .... Z-matrix Internals
Initial Hessian          InHess   .... Almoef's Model

Convergence Tolerances:
Energy Change            TolE     ....  5.0000e-06 Eh
Max. Gradient            TolMAXG  ....  3.0000e-04 Eh/bohr
RMS Gradient             TolRMSG  ....  1.0000e-04 Eh/bohr
Max. Displacement        TolMAXD  ....  4.0000e-03 bohr
RMS Displacement         TolRMSD  ....  2.0000e-03 bohr
Strict Convergence                ....  False
------------------------------------------------------------------------------
                        ORCA OPTIMIZATION COORDINATE SETUP
------------------------------------------------------------------------------

The optimization will be done in new redundant internal coordinates
Making redundant internal coordinates   ...  (new redundants) done
Evaluating the initial hessian          ...  (Almloef) done
Evaluating the coordinates              ...  done
Calculating the B-matrix                .... done
Calculating the G-matrix                .... done
Diagonalizing the G-matrix              .... done
Imposing constraints:
 Iter   0:  RMS(Cart)=    0.0001710073 RMS(Int)=    0.0000550284
 Iter   1:  RMS(Cart)=    0.0000804291 RMS(Int)=    0.0000298417
 Iter   2:  RMS(Cart)=    0.0000397286 RMS(Int)=    0.0000178100
 Iter   3:  RMS(Cart)=    0.0000210980 RMS(Int)=    0.0000115848
 Iter   4:  RMS(Cart)=    0.0000122013 RMS(Int)=    0.0000080547
 Iter   5:  RMS(Cart)=    0.0000076250 RMS(Int)=    0.0000059197
 Iter   6:  RMS(Cart)=    0.0000050448 RMS(Int)=    0.0000045969
 Iter   7:  RMS(Cart)=    0.0000034678 RMS(Int)=    0.0000037805
 Iter   8:  RMS(Cart)=    0.0000024505 RMS(Int)=    0.0000032815
 Iter   9:  RMS(Cart)=    0.0000017751 RMS(Int)=    0.0000029738
 Iter  10:  RMS(Cart)=    0.0000013218 RMS(Int)=    0.0000027761
 Iter  11:  RMS(Cart)=    0.0000010181 RMS(Int)=    0.0000026392
 Iter  12:  RMS(Cart)=    0.0000008164 RMS(Int)=    0.0000025354
 Iter  13:  RMS(Cart)=    0.0000006834 RMS(Int)=    0.0000024497
 Iter  14:  RMS(Cart)=    0.0000005957 RMS(Int)=    0.0000023743
 Iter  15:  RMS(Cart)=    0.0000005369 RMS(Int)=    0.0000023051
 Iter  16:  RMS(Cart)=    0.0000004960 RMS(Int)=    0.0000022400
 Iter  17:  RMS(Cart)=    0.0000004659 RMS(Int)=    0.0000021779
 Iter  18:  RMS(Cart)=    0.0000004426 RMS(Int)=    0.0000021182
 Iter  19:  RMS(Cart)=    0.0000004234 RMS(Int)=    0.0000020606
 Iter  20:  RMS(Cart)=    0.0000004069 RMS(Int)=    0.0000020048
 Iter  21:  RMS(Cart)=    0.0000003922 RMS(Int)=    0.0000019509
 Iter  22:  RMS(Cart)=    0.0000003788 RMS(Int)=    0.0000018986
 Iter  23:  RMS(Cart)=    0.0000003663 RMS(Int)=    0.0000018479
 Iter  24:  RMS(Cart)=    0.0000003545 RMS(Int)=    0.0000017988
 Iter  25:  RMS(Cart)=    0.0000003434 RMS(Int)=    0.0000017511
 Iter  26:  RMS(Cart)=    0.0000003327 RMS(Int)=    0.0000017049
 Iter  27:  RMS(Cart)=    0.0000003225 RMS(Int)=    0.0000016600
 Iter  28:  RMS(Cart)=    0.0000003127 RMS(Int)=    0.0000016165
 Iter  29:  RMS(Cart)=    0.0000003033 RMS(Int)=    0.0000015743
 Iter  30:  RMS(Cart)=    0.0000002942 RMS(Int)=    0.0000015333
 Iter  31:  RMS(Cart)=    0.0000002854 RMS(Int)=    0.0000014936
 Iter  32:  RMS(Cart)=    0.0000002769 RMS(Int)=    0.0000014550
 Iter  33:  RMS(Cart)=    0.0000002687 RMS(Int)=    0.0000014176
 Iter  34:  RMS(Cart)=    0.0000002608 RMS(Int)=    0.0000013813
 Iter  35:  RMS(Cart)=    0.0000002531 RMS(Int)=    0.0000013460
 Iter  36:  RMS(Cart)=    0.0000002457 RMS(Int)=    0.0000013118
 Iter  37:  RMS(Cart)=    0.0000002385 RMS(Int)=    0.0000012785
 Iter  38:  RMS(Cart)=    0.0000002316 RMS(Int)=    0.0000012463
 Iter  39:  RMS(Cart)=    0.0000002249 RMS(Int)=    0.0000012149
 Iter  40:  RMS(Cart)=    0.0000002184 RMS(Int)=    0.0000011845
 Iter  41:  RMS(Cart)=    0.0000002120 RMS(Int)=    0.0000011549
 Iter  42:  RMS(Cart)=    0.0000002059 RMS(Int)=    0.0000011262
 Iter  43:  RMS(Cart)=    0.0000002000 RMS(Int)=    0.0000010983
 Iter  44:  RMS(Cart)=    0.0000001943 RMS(Int)=    0.0000010712
 Iter  45:  RMS(Cart)=    0.0000001887 RMS(Int)=    0.0000010449
 Iter  46:  RMS(Cart)=    0.0000001834 RMS(Int)=    0.0000010194
 Iter  47:  RMS(Cart)=    0.0000001782 RMS(Int)=    0.0000009945
 Iter  48:  RMS(Cart)=    0.0000001731 RMS(Int)=    0.0000009704
 Iter  49:  RMS(Cart)=    0.0000001682 RMS(Int)=    0.0000009469
 Iter  50:  RMS(Cart)=    0.0000001635 RMS(Int)=    0.0000009241
 Iter  51:  RMS(Cart)=    0.0000001589 RMS(Int)=    0.0000009020
 Iter  52:  RMS(Cart)=    0.0000001545 RMS(Int)=    0.0000008804
 Iter  53:  RMS(Cart)=    0.0000001501 RMS(Int)=    0.0000008595
 Iter  54:  RMS(Cart)=    0.0000001460 RMS(Int)=    0.0000008391
 Iter  55:  RMS(Cart)=    0.0000001419 RMS(Int)=    0.0000008193
 Iter  56:  RMS(Cart)=    0.0000001380 RMS(Int)=    0.0000008001
 Iter  57:  RMS(Cart)=    0.0000001342 RMS(Int)=    0.0000007814
 Iter  58:  RMS(Cart)=    0.0000001305 RMS(Int)=    0.0000007632
 Iter  59:  RMS(Cart)=    0.0000001269 RMS(Int)=    0.0000007455
 Iter  60:  RMS(Cart)=    0.0000001235 RMS(Int)=    0.0000007282
 Iter  61:  RMS(Cart)=    0.0000001201 RMS(Int)=    0.0000007115
 Iter  62:  RMS(Cart)=    0.0000001168 RMS(Int)=    0.0000006952
 Iter  63:  RMS(Cart)=    0.0000001137 RMS(Int)=    0.0000006793
 Iter  64:  RMS(Cart)=    0.0000001106 RMS(Int)=    0.0000006639
 Iter  65:  RMS(Cart)=    0.0000001076 RMS(Int)=    0.0000006489
 Iter  66:  RMS(Cart)=    0.0000001047 RMS(Int)=    0.0000006343
 Iter  67:  RMS(Cart)=    0.0000001019 RMS(Int)=    0.0000006201
 Iter  68:  RMS(Cart)=    0.0000000992 RMS(Int)=    0.0000006063
 Iter  69:  RMS(Cart)=    0.0000000966 RMS(Int)=    0.0000005928
 Iter  70:  RMS(Cart)=    0.0000000940 RMS(Int)=    0.0000005797
 Iter  71:  RMS(Cart)=    0.0000000915 RMS(Int)=    0.0000005670
 Iter  72:  RMS(Cart)=    0.0000000891 RMS(Int)=    0.0000005546
 Iter  73:  RMS(Cart)=    0.0000000868 RMS(Int)=    0.0000005425
 Iter  74:  RMS(Cart)=    0.0000000845 RMS(Int)=    0.0000005307
 Iter  75:  RMS(Cart)=    0.0000000823 RMS(Int)=    0.0000005192
 Iter  76:  RMS(Cart)=    0.0000000802 RMS(Int)=    0.0000005081
 Iter  77:  RMS(Cart)=    0.0000000781 RMS(Int)=    0.0000004972
 Iter  78:  RMS(Cart)=    0.0000000761 RMS(Int)=    0.0000004866
 Iter  79:  RMS(Cart)=    0.0000000741 RMS(Int)=    0.0000004763
 Iter  80:  RMS(Cart)=    0.0000000722 RMS(Int)=    0.0000004663
 Iter  81:  RMS(Cart)=    0.0000000704 RMS(Int)=    0.0000004565
 Iter  82:  RMS(Cart)=    0.0000000686 RMS(Int)=    0.0000004469
 Iter  83:  RMS(Cart)=    0.0000000668 RMS(Int)=    0.0000004376
 Iter  84:  RMS(Cart)=    0.0000000651 RMS(Int)=    0.0000004286
 Iter  85:  RMS(Cart)=    0.0000000635 RMS(Int)=    0.0000004198
 Iter  86:  RMS(Cart)=    0.0000000619 RMS(Int)=    0.0000004112
 Iter  87:  RMS(Cart)=    0.0000000603 RMS(Int)=    0.0000004028
 Iter  88:  RMS(Cart)=    0.0000000588 RMS(Int)=    0.0000003946
 Iter  89:  RMS(Cart)=    0.0000000574 RMS(Int)=    0.0000003866
 Iter  90:  RMS(Cart)=    0.0000000559 RMS(Int)=    0.0000003789
 Iter  91:  RMS(Cart)=    0.0000000546 RMS(Int)=    0.0000003713
 Iter  92:  RMS(Cart)=    0.0000000532 RMS(Int)=    0.0000003639
 Iter  93:  RMS(Cart)=    0.0000000519 RMS(Int)=    0.0000003567
 Iter  94:  RMS(Cart)=    0.0000000506 RMS(Int)=    0.0000003497
 Iter  95:  RMS(Cart)=    0.0000000494 RMS(Int)=    0.0000003429
 Iter  96:  RMS(Cart)=    0.0000000482 RMS(Int)=    0.0000003362
 Iter  97:  RMS(Cart)=    0.0000000470 RMS(Int)=    0.0000003297
 Iter  98:  RMS(Cart)=    0.0000000459 RMS(Int)=    0.0000003233
 Iter  99:  RMS(Cart)=    0.0000000448 RMS(Int)=    0.0000003171
 RMS(Cart) too big - taking linear step, building new B-matrix and trying again
Imposing constraints:
 Iter   0:  RMS(Cart)=    0.0000804278 RMS(Int)=    0.0000298421
 Iter   1:  RMS(Cart)=    0.0000397278 RMS(Int)=    0.0000178105
 Iter   2:  RMS(Cart)=    0.0000210976 RMS(Int)=    0.0000115853
 Iter   3:  RMS(Cart)=    0.0000122010 RMS(Int)=    0.0000080551
 Iter   4:  RMS(Cart)=    0.0000076250 RMS(Int)=    0.0000059200
 Iter   5:  RMS(Cart)=    0.0000050448 RMS(Int)=    0.0000045971
 Iter   6:  RMS(Cart)=    0.0000034679 RMS(Int)=    0.0000037806
 Iter   7:  RMS(Cart)=    0.0000024506 RMS(Int)=    0.0000032815
 Iter   8:  RMS(Cart)=    0.0000017751 RMS(Int)=    0.0000029738
 Iter   9:  RMS(Cart)=    0.0000013219 RMS(Int)=    0.0000027760
 Iter  10:  RMS(Cart)=    0.0000010182 RMS(Int)=    0.0000026391
 Iter  11:  RMS(Cart)=    0.0000008164 RMS(Int)=    0.0000025353
 Iter  12:  RMS(Cart)=    0.0000006834 RMS(Int)=    0.0000024496
 Iter  13:  RMS(Cart)=    0.0000005957 RMS(Int)=    0.0000023742
 Iter  14:  RMS(Cart)=    0.0000005369 RMS(Int)=    0.0000023050
 Iter  15:  RMS(Cart)=    0.0000004960 RMS(Int)=    0.0000022399
 Iter  16:  RMS(Cart)=    0.0000004659 RMS(Int)=    0.0000021778
 Iter  17:  RMS(Cart)=    0.0000004426 RMS(Int)=    0.0000021181
 Iter  18:  RMS(Cart)=    0.0000004234 RMS(Int)=    0.0000020604
 Iter  19:  RMS(Cart)=    0.0000004069 RMS(Int)=    0.0000020047
 Iter  20:  RMS(Cart)=    0.0000003922 RMS(Int)=    0.0000019508
 Iter  21:  RMS(Cart)=    0.0000003787 RMS(Int)=    0.0000018985
 Iter  22:  RMS(Cart)=    0.0000003663 RMS(Int)=    0.0000018478
 Iter  23:  RMS(Cart)=    0.0000003545 RMS(Int)=    0.0000017986
 Iter  24:  RMS(Cart)=    0.0000003434 RMS(Int)=    0.0000017510
 Iter  25:  RMS(Cart)=    0.0000003327 RMS(Int)=    0.0000017047
 Iter  26:  RMS(Cart)=    0.0000003225 RMS(Int)=    0.0000016599
 Iter  27:  RMS(Cart)=    0.0000003127 RMS(Int)=    0.0000016164
 Iter  28:  RMS(Cart)=    0.0000003033 RMS(Int)=    0.0000015742
 Iter  29:  RMS(Cart)=    0.0000002942 RMS(Int)=    0.0000015332
 Iter  30:  RMS(Cart)=    0.0000002854 RMS(Int)=    0.0000014935
 Iter  31:  RMS(Cart)=    0.0000002769 RMS(Int)=    0.0000014549
 Iter  32:  RMS(Cart)=    0.0000002687 RMS(Int)=    0.0000014175
 Iter  33:  RMS(Cart)=    0.0000002608 RMS(Int)=    0.0000013811
 Iter  34:  RMS(Cart)=    0.0000002531 RMS(Int)=    0.0000013459
 Iter  35:  RMS(Cart)=    0.0000002457 RMS(Int)=    0.0000013116
 Iter  36:  RMS(Cart)=    0.0000002385 RMS(Int)=    0.0000012784
 Iter  37:  RMS(Cart)=    0.0000002316 RMS(Int)=    0.0000012461
 Iter  38:  RMS(Cart)=    0.0000002249 RMS(Int)=    0.0000012148
 Iter  39:  RMS(Cart)=    0.0000002183 RMS(Int)=    0.0000011843
 Iter  40:  RMS(Cart)=    0.0000002120 RMS(Int)=    0.0000011548
 Iter  41:  RMS(Cart)=    0.0000002059 RMS(Int)=    0.0000011261
 Iter  42:  RMS(Cart)=    0.0000002000 RMS(Int)=    0.0000010982
 Iter  43:  RMS(Cart)=    0.0000001943 RMS(Int)=    0.0000010711
 Iter  44:  RMS(Cart)=    0.0000001887 RMS(Int)=    0.0000010448
 Iter  45:  RMS(Cart)=    0.0000001834 RMS(Int)=    0.0000010192
 Iter  46:  RMS(Cart)=    0.0000001782 RMS(Int)=    0.0000009944
CONVERGED
Small eigenvalue found = 5.767e-03
Small eigenvalue found = 1.098e-02
Small eigenvalue found = 1.341e-02
The first mode is                       ....   91
The number of degrees of freedom        ....   81
Storing new coordinates                 .... done

    -----------------------------------------------------------------
                    Redundant Internal Coordinates


    -----------------------------------------------------------------
         Definition                    Initial Value    Approx d2E/dq
    -----------------------------------------------------------------
      1. B(C   1,C   0)                  1.5333         0.369027   
      2. B(C   2,C   1)                  1.5471         0.350825   
      3. B(C   3,C   2)                  1.5492         0.348147   
      4. B(O   4,C   0)                  1.4668         0.422031   
      5. B(O   4,C   3)                  1.4789         0.403699   
      6. B(H   5,C   0)                  1.0919         0.357632   
      7. B(H   6,C   1)                  1.0958         0.352561   
      8. B(H   7,C   1)                  1.0951         0.353431   
      9. B(H   8,C   2)                  1.0945         0.354166   
     10. B(H   9,C   2)                  1.0966         0.351438   
     11. B(H  10,C   3)                  1.0954         0.353010   
     12. B(H  11,C   3)                  1.0939         0.354989   
     13. B(H  13,C  12)                  1.0972         0.350721   
     14. B(H  14,C  12)                  1.0976         0.350131   
     15. B(O  15,C   0)                  1.5525         0.307993   
     16. B(O  15,C  12)                  1.5539         0.306419   
     17. B(C  16,C  12)                  1.5531         0.343121   
     18. B(C  17,C  16)                  1.5331         0.369361   
     19. B(C  18,C  17)                  1.5466         0.351444   
     20. B(C  19,C  18)                  1.5488         0.348620   
     21. B(O  20,C  16)                  1.4662         0.423043   
     22. B(O  20,C  19)                  1.4786         0.404198   
     23. B(H  21,C  16)                  1.0921         0.357346   
     24. B(H  22,C  17)                  1.0957         0.352613   
     25. B(O  23,C  17)                  1.5537         0.306663   
     26. B(H  24,C  18)                  1.0951         0.353436   
     27. B(H  25,C  18)                  1.0959         0.352413   
     28. B(H  26,C  19)                  1.0961         0.352145   
     29. B(H  27,C  19)                  1.0940         0.354865   
     30. B(H  28,O  23)                  1.0950         0.316659   
     31. A(O   4,C   0,H   5)          107.0214         0.328541   
     32. A(C   1,C   0,O  15)          111.3021         0.348740   
     33. A(C   1,C   0,O   4)          104.2486         0.367935   
     34. A(O   4,C   0,O  15)          110.4734         0.354548   
     35. A(C   1,C   0,H   5)          114.4378         0.323302   
     36. A(H   5,C   0,O  15)          109.1576         0.312058   
     37. A(C   0,C   1,C   2)          101.6796         0.358729   
     38. A(C   2,C   1,H   7)          112.8319         0.320016   
     39. A(C   2,C   1,H   6)          110.6708         0.319888   
     40. A(C   0,C   1,H   6)          110.0677         0.322546   
     41. A(H   6,C   1,H   7)          108.3681         0.289027   
     42. A(C   0,C   1,H   7)          113.1243         0.322677   
     43. A(C   1,C   2,H   8)          112.8318         0.320125   
     44. A(C   1,C   2,C   3)          103.1268         0.355196   
     45. A(C   1,C   2,H   9)          110.0800         0.319721   
     46. A(C   3,C   2,H   9)          110.6152         0.319321   
     47. A(C   3,C   2,H   8)          112.4038         0.319725   
     48. A(H   8,C   2,H   9)          107.7728         0.288977   
     49. A(O   4,C   3,H  10)          109.1298         0.325449   
     50. A(C   2,C   3,H  10)          112.5253         0.319554   
     51. A(C   2,C   3,O   4)          106.5275         0.361529   
     52. A(O   4,C   3,H  11)          107.1237         0.325748   
     53. A(H  10,C   3,H  11)          108.8728         0.289284   
     54. A(C   2,C   3,H  11)          112.4566         0.319846   
     55. A(C   0,O   4,C   3)          108.3146         0.371320   
     56. A(H  14,C  12,C  16)          107.7417         0.318371   
     57. A(H  13,C  12,H  14)          108.2304         0.288366   
     58. A(H  13,C  12,O  15)          109.2021         0.310817   
     59. A(H  14,C  12,O  15)          110.4522         0.310733   
     60. A(O  15,C  12,C  16)          112.7118         0.344200   
     61. A(H  13,C  12,C  16)          108.3818         0.318458   
     62. A(C   0,O  15,C  12)          115.1636         0.335988   
     63. A(C  12,C  16,C  17)          111.2754         0.357432   
     64. A(C  12,C  16,O  20)          110.5143         0.363526   
     65. A(C  17,C  16,O  20)          104.2070         0.368144   
     66. A(C  12,C  16,H  21)          109.1643         0.319432   
     67. A(C  17,C  16,H  21)          114.4424         0.323308   
     68. A(O  20,C  16,H  21)          107.0399         0.328628   
     69. A(C  16,C  17,C  18)          101.6829         0.358892   
     70. A(C  16,C  17,H  22)          110.1290         0.322602   
     71. A(C  18,C  17,H  22)          110.6894         0.319988   
     72. A(C  16,C  17,O  23)          113.1024         0.348539   
     73. A(C  18,C  17,O  23)          112.8034         0.345635   
     74. A(H  22,C  17,O  23)          108.3408         0.311127   
     75. A(C  17,C  18,C  19)          103.1326         0.355384   
     76. A(C  17,C  18,H  24)          112.8136         0.320109   
     77. A(C  19,C  18,H  24)          112.3611         0.319688   
     78. A(C  17,C  18,H  25)          110.1314         0.319958   
     79. A(C  19,C  18,H  25)          110.6164         0.319536   
     80. A(H  24,C  18,H  25)          107.7770         0.289009   
     81. A(C  18,C  19,O  20)          106.4804         0.361689   
     82. A(C  18,C  19,H  26)          112.5201         0.319497   
     83. A(O  20,C  19,H  26)          109.0712         0.325383   
     84. A(C  18,C  19,H  27)          112.4814         0.319899   
     85. A(O  20,C  19,H  27)          107.1599         0.325795   
     86. A(H  26,C  19,H  27)          108.9193         0.289157   
     87. A(C  16,O  20,C  19)          108.3695         0.371552   
     88. A(C  17,O  23,H  28)          109.6774         0.303259   
     89. D(H   7,C   1,C   0,H   5)     82.1518         0.010890   
     90. D(C   2,C   1,C   0,O  15)     79.0869         0.010890   
     91. D(H   7,C   1,C   0,O  15)    -42.1868         0.010890   
     92. D(H   6,C   1,C   0,O   4)     77.3259         0.010890   
     93. D(H   6,C   1,C   0,O  15)   -163.5727         0.010890   
     94. D(H   6,C   1,C   0,H   5)    -39.2341         0.010890   
     95. D(H   7,C   1,C   0,O   4)   -161.2882         0.010890   
     96. D(C   2,C   1,C   0,O   4)    -40.0145         0.010890 C 
     97. D(C   2,C   1,C   0,H   5)   -156.5745         0.010890   
     98. D(H   9,C   2,C   1,H   6)    160.0776         0.009912   
     99. D(H   8,C   2,C   1,C   0)    156.5478         0.009912   
    100. D(H   8,C   2,C   1,H   6)     39.6446         0.009912   
    101. D(C   3,C   2,C   1,C   0)     35.0270         0.009912 C 
    102. D(H   8,C   2,C   1,H   7)    -81.9752         0.009912   
    103. D(H   9,C   2,C   1,C   0)    -83.0191         0.009912   
    104. D(C   3,C   2,C   1,H   6)    -81.8763         0.009912   
    105. D(H   9,C   2,C   1,H   7)     38.4578         0.009912   
    106. D(C   3,C   2,C   1,H   7)    156.5039         0.009912   
    107. D(H  11,C   3,C   2,H   9)   -143.4628         0.009774   
    108. D(O   4,C   3,C   2,H   8)   -140.0066         0.009774   
    109. D(O   4,C   3,C   2,H   9)     99.4739         0.009774   
    110. D(H  10,C   3,C   2,C   1)   -137.7432         0.009774   
    111. D(H  10,C   3,C   2,H   8)    100.4468         0.009774   
    112. D(H  10,C   3,C   2,H   9)    -20.0727         0.009774   
    113. D(H  11,C   3,C   2,C   1)     98.8667         0.009774   
    114. D(O   4,C   3,C   2,C   1)    -18.1967         0.009774 C 
    115. D(H  11,C   3,C   2,H   8)    -22.9433         0.009774   
    116. D(C   3,O   4,C   0,C   1)     29.5918         0.014035 C 
    117. D(C   3,O   4,C   0,H   5)    151.2016         0.014035   
    118. D(C   3,O   4,C   0,O  15)    -90.0713         0.014035   
    119. D(C   0,O   4,C   3,C   2)     -6.8732         0.012866 C 
    120. D(C   0,O   4,C   3,H  10)    114.8547         0.012866   
    121. D(C   0,O   4,C   3,H  11)   -127.4272         0.012866   
    122. D(C   0,O  15,C  12,C  16)     75.0000         0.007724 C 
    123. D(C  12,O  15,C   0,O   4)    150.0000         0.007793 C 
    124. D(C  12,O  15,C   0,H   5)    -92.5812         0.007793   
    125. D(C   0,O  15,C  12,H  14)    -45.5744         0.007724   
    126. D(C   0,O  15,C  12,H  13)   -164.4848         0.007724   
    127. D(C  12,O  15,C   0,C   1)     34.6864         0.007793   
    128. D(C  17,C  16,C  12,H  13)     63.7133         0.009517   
    129. D(H  21,C  16,C  12,H  14)    179.5538         0.009517   
    130. D(C  17,C  16,C  12,O  15)   -175.3023         0.009517   
    131. D(O  20,C  16,C  12,H  13)    178.9848         0.009517   
    132. D(O  20,C  16,C  12,H  14)     62.0845         0.009517   
    133. D(O  20,C  16,C  12,O  15)    -60.0308         0.009517 C 
    134. D(C  17,C  16,C  12,H  14)    -53.1870         0.009517   
    135. D(H  21,C  16,C  12,H  13)    -63.5459         0.009517   
    136. D(H  21,C  16,C  12,O  15)     57.4385         0.009517   
    137. D(C  18,C  17,C  16,C  12)     79.0823         0.010908   
    138. D(C  18,C  17,C  16,O  20)    -40.0298         0.010908 C 
    139. D(C  18,C  17,C  16,H  21)   -156.5882         0.010908   
    140. D(H  22,C  17,C  16,C  12)   -163.5284         0.010908   
    141. D(H  22,C  17,C  16,O  20)     77.3595         0.010908   
    142. D(H  22,C  17,C  16,H  21)    -39.1989         0.010908   
    143. D(O  23,C  17,C  16,C  12)    -42.1484         0.010908   
    144. D(O  23,C  17,C  16,O  20)   -161.2605         0.010908   
    145. D(O  23,C  17,C  16,H  21)     82.1811         0.010908   
    146. D(H  24,C  18,C  17,O  23)    -82.0221         0.009945   
    147. D(C  19,C  18,C  17,H  22)    -81.9074         0.009945   
    148. D(C  19,C  18,C  17,O  23)    156.5146         0.009945   
    149. D(H  24,C  18,C  17,C  16)    156.5392         0.009945   
    150. D(C  19,C  18,C  17,C  16)     35.0759         0.009945 C 
    151. D(H  24,C  18,C  17,H  22)     39.5559         0.009945   
    152. D(H  25,C  18,C  17,C  16)    -82.9984         0.009945   
    153. D(H  25,C  18,C  17,H  22)    160.0183         0.009945   
    154. D(H  25,C  18,C  17,O  23)     38.4402         0.009945   
    155. D(H  27,C  19,C  18,H  25)   -143.4132         0.009798   
    156. D(O  20,C  19,C  18,H  24)   -140.0081         0.009798   
    157. D(O  20,C  19,C  18,H  25)     99.4952         0.009798   
    158. D(H  26,C  19,C  18,C  17)   -137.6803         0.009798   
    159. D(H  26,C  19,C  18,H  24)    100.5506         0.009798   
    160. D(H  26,C  19,C  18,H  25)    -19.9461         0.009798   
    161. D(H  27,C  19,C  18,C  17)     98.8527         0.009798   
    162. D(O  20,C  19,C  18,C  17)    -18.2390         0.009798 C 
    163. D(H  27,C  19,C  18,H  24)    -22.9164         0.009798   
    164. D(C  19,O  20,C  16,C  12)    -90.0390         0.014102   
    165. D(C  19,O  20,C  16,C  17)     29.5893         0.014102 C 
    166. D(C  19,O  20,C  16,H  21)    151.1920         0.014102   
    167. D(C  16,O  20,C  19,C  18)     -6.8522         0.012897 C 
    168. D(C  16,O  20,C  19,H  26)    114.8087         0.012897   
    169. D(C  16,O  20,C  19,H  27)   -127.4292         0.012897   
    170. D(H  28,O  23,C  17,C  16)     57.6623         0.007735   
    171. D(H  28,O  23,C  17,C  18)    -57.0566         0.007735   
    172. D(H  28,O  23,C  17,H  22)   -179.9546         0.007735   
    -----------------------------------------------------------------

Number of atoms                         .... 29
Number of degrees of freedom            .... 172

Time needed for optimization step       :    12.20 sec

         *************************************************************
         *                GEOMETRY OPTIMIZATION CYCLE   1            *
         *************************************************************
---------------------------------
CARTESIAN COORDINATES (ANGSTROEM)
---------------------------------
  C    -21.047782   26.222020   46.250966
  C    -20.360915   27.558140   45.944160
  C    -20.329149   28.222032   47.341221
  C    -20.110098   27.021974   48.296133
  O    -20.472861   25.806999   47.534992
  H    -20.832602   25.428127   45.532901
  H    -19.343855   27.382299   45.576251
  H    -20.897914   28.157138   45.201158
  H    -19.543255   28.978125   47.434369
  H    -21.289232   28.709893   47.548161
  H    -20.733200   27.081813   49.195073
  H    -19.064116   26.913080   48.597233
  C    -23.209805   27.458962   45.430939
  H    -24.221794   27.700981   45.778957
  H    -22.612753   28.379927   45.444044
  O    -22.585813   26.393851   46.374819
  C    -23.301084   26.975019   43.957937
  C    -23.812092   28.089091   43.037035
  C    -22.537017   28.941934   42.839858
  C    -21.405142   27.884800   42.826671
  O    -21.967199   26.660855   43.436738
  H    -23.885190   26.053083   43.919013
  H    -24.146285   27.666147   42.083078
  O    -24.987905   28.897220   43.652223
  H    -22.562082   29.536951   41.920871
  H    -22.410807   29.631905   43.681851
  H    -20.528018   28.201688   43.402545
  H    -21.088324   27.623778   41.812620
  H    -24.676711   29.331168   44.608184

----------------------------
CARTESIAN COORDINATES (A.U.)
----------------------------
  NO LB      ZA    FRAG     MASS         X           Y           Z
   0 C     6.0000    0    12.011  -39.774543   49.552436   87.401659
   1 C     6.0000    0    12.011  -38.476554   52.077337   86.821880
   2 C     6.0000    0    12.011  -38.416524   53.331912   89.461942
   3 C     6.0000    0    12.011  -38.002578   51.064130   91.266465
   4 O     8.0000    0    15.999  -38.688100   48.768160   89.828116
   5 H     1.0000    0     1.008  -39.367913   48.052197   86.044713
   6 H     1.0000    0     1.008  -36.554588   51.745046   86.126632
   7 H     1.0000    0     1.008  -39.491334   53.209280   85.417809
   8 H     1.0000    0     1.008  -36.931401   54.760720   89.637968
   9 H     1.0000    0     1.008  -40.230819   54.253836   89.853002
  10 H     1.0000    0     1.008  -39.180070   51.177210   92.965215
  11 H     1.0000    0     1.008  -36.025958   50.858351   91.835461
  12 C     6.0000    0    12.011  -43.860174   51.889918   85.852032
  13 H     1.0000    0     1.008  -45.772557   52.347268   86.509691
  14 H     1.0000    0     1.008  -42.731911   53.630290   85.876797
  15 O     8.0000    0    15.999  -42.681000   49.877151   87.635708
  16 C     6.0000    0    12.011  -44.032668   50.975398   83.068463
  17 C     6.0000    0    12.011  -44.998332   53.080689   81.328210
  18 C     6.0000    0    12.011  -42.588789   54.692329   80.955600
  19 C     6.0000    0    12.011  -40.449856   52.694636   80.930680
  20 O     8.0000    0    15.999  -41.511990   50.381715   82.083540
  21 H     1.0000    0     1.008  -45.136468   49.233191   82.994906
  22 H     1.0000    0     1.008  -45.629865   52.281441   79.525492
  23 O     8.0000    0    15.999  -47.220296   54.607832   82.490747
  24 H     1.0000    0     1.008  -42.636156   55.816748   79.218965
  25 H     1.0000    0     1.008  -42.350288   55.996185   82.546735
  26 H     1.0000    0     1.008  -38.792333   53.293466   82.018924
  27 H     1.0000    0     1.008  -39.851157   52.201376   79.014401
  28 H     1.0000    0     1.008  -46.632226   55.427874   84.297251

--------------------------------
INTERNAL COORDINATES (ANGSTROEM)
--------------------------------
 C      0   0   0     0.000000000000     0.00000000     0.00000000
 C      1   0   0     1.533334275362     0.00000000     0.00000000
 C      2   1   0     1.547103422529   101.67907390     0.00000000
 C      3   2   1     1.549188819996   103.12737509    35.02687180
 O      1   2   3     1.466801281701   104.24948604   319.98542309
 H      1   2   3     1.091872245274   114.43876658   203.42640133
 H      2   1   3     1.095759553917   110.06782188   117.34000099
 H      2   1   3     1.095088580892   113.12442239   238.72597460
 H      3   2   1     1.094523183857   112.83161078   156.54780790
 H      3   2   1     1.096628013503   110.07982737   276.98070077
 H      4   3   2     1.095413164062   112.52534669   222.25678475
 H      4   3   2     1.093891219455   112.45670684    98.86663270
 C      8   2   1     2.425994229177   104.21889074    27.16777129
 H     13   8   2     1.097183667396   147.73961257   106.85643440
 H     13   8   2     1.097642473668    40.65657306   125.92514197
 O      1   2   3     1.552547583812   111.30349807    79.08752829
 C     13   8   2     1.553147127609    93.18633430   239.71506671
 C     17  13   8     1.533087733954   111.27460327   268.06207672
 C     18  17  13     1.546623095651   101.68330020    79.08174521
 C     19  18  17     1.548819550496   103.13218194    35.07601080
 O     17  13   8     1.466149037445   110.51455888    23.33237219
 H     17  13   8     1.092090197740   109.16505881   140.80353642
 H     18  17  13     1.095719398386   110.12886883   196.47135086
 O     18  17  13     1.553726166350   113.10226375   317.85129871
 H     19  18  17     1.095084928213   112.81373214   156.53928530
 H     19  18  17     1.095874080358   110.13152781   277.00170733
 H     20  19  18     1.096081201372   112.52014337   222.31965117
 H     20  19  18     1.093986288762   112.48129927    98.85266614
 H     24  18  17     1.094994520534   109.67741381    57.66240731

---------------------------
INTERNAL COORDINATES (A.U.)
---------------------------
 C      0   0   0     0.000000000000     0.00000000     0.00000000
 C      1   0   0     2.897581852189     0.00000000     0.00000000
 C      2   1   0     2.923601769431   101.67907390     0.00000000
 C      3   2   1     2.927542599525   103.12737509    35.02687180
 O      1   2   3     2.771852715300   104.24948604   319.98542309
 H      1   2   3     2.063339516798   114.43876658   203.42640133
 H      2   1   3     2.070685465531   110.06782188   117.34000099
 H      2   1   3     2.069417510270   113.12442239   238.72597460
 H      3   2   1     2.068349064717   112.83161078   156.54780790
 H      3   2   1     2.072326616307   110.07982737   276.98070077
 H      4   3   2     2.070030883569   112.52534669   222.25678475
 H      4   3   2     2.067154825070   112.45670684    98.86663270
 C      8   2   1     4.584464695618   104.21889074    27.16777129
 H     13   8   2     2.073376649989   147.73961257   106.85643440
 H     13   8   2     2.074243668192    40.65657306   125.92514197
 O      1   2   3     2.933889743286   111.30349807    79.08752829
 C     13   8   2     2.935022716867    93.18633430   239.71506671
 C     17  13   8     2.897115956447   111.27460327   268.06207672
 C     18  17  13     2.922694083177   101.68330020    79.08174521
 C     19  18  17     2.926844781301   103.13218194    35.07601080
 O     17  13   8     2.770620152283   110.51455888    23.33237219
 H     17  13   8     2.063751387269   109.16505881   140.80353642
 H     18  17  13     2.070609582575   110.12886883   196.47135086
 O     18  17  13     2.936116941508   113.10226375   317.85129871
 H     19  18  17     2.069410607708   112.81373214   156.53928530
 H     19  18  17     2.070901889139   110.13152781   277.00170733
 H     20  19  18     2.071293291132   112.52014337   222.31965117
 H     20  19  18     2.067334480026   112.48129927    98.85266614
 H     24  18  17     2.069239761954   109.67741381    57.66240731

---------------------
BASIS SET INFORMATION
---------------------
There are 3 groups of distinct atoms

 Group   1 Type C   : 10s4p contracted to 3s2p pattern {631/31}
 Group   2 Type O   : 10s4p contracted to 3s2p pattern {631/31}
 Group   3 Type H   : 4s contracted to 2s pattern {31}

Atom   0C    basis set group =>   1
Atom   1C    basis set group =>   1
Atom   2C    basis set group =>   1
Atom   3C    basis set group =>   1
Atom   4O    basis set group =>   2
Atom   5H    basis set group =>   3
Atom   6H    basis set group =>   3
Atom   7H    basis set group =>   3
Atom   8H    basis set group =>   3
Atom   9H    basis set group =>   3
Atom  10H    basis set group =>   3
Atom  11H    basis set group =>   3
Atom  12C    basis set group =>   1
Atom  13H    basis set group =>   3
Atom  14H    basis set group =>   3
Atom  15O    basis set group =>   2
Atom  16C    basis set group =>   1
Atom  17C    basis set group =>   1
Atom  18C    basis set group =>   1
Atom  19C    basis set group =>   1
Atom  20O    basis set group =>   2
Atom  21H    basis set group =>   3
Atom  22H    basis set group =>   3
Atom  23O    basis set group =>   2
Atom  24H    basis set group =>   3
Atom  25H    basis set group =>   3
Atom  26H    basis set group =>   3
Atom  27H    basis set group =>   3
Atom  28H    basis set group =>   3
------------------------------------------------------------------------------
                           ORCA GTO INTEGRAL CALCULATION
------------------------------------------------------------------------------

                         BASIS SET STATISTICS AND STARTUP INFO

 # of primitive gaussian shells          ...  246
 # of primitive gaussian functions       ...  350
 # of contracted shells                  ...   97
 # of contracted basis functions         ...  149
 Highest angular momentum                ...    1
 Maximum contraction depth               ...    6
 Integral package used                   ... LIBINT
 Integral threshhold            Thresh   ...  2.500e-11
 Primitive cut-off              TCut     ...  2.500e-12


------------------------------ INTEGRAL EVALUATION ----------------------------


 * One electron integrals 
 Pre-screening matrix                    ... done
 Shell pair data                         ... done (   0.002 sec)

-------------------------------------------------------------------------------
                                 ORCA SCF
-------------------------------------------------------------------------------

------------
SCF SETTINGS
------------
Hamiltonian:
 Density Functional     Method          .... DFT(GTOs)
 Exchange Functional    Exchange        .... B88
   X-Alpha parameter    XAlpha          ....  0.666667
   Becke's b parameter  XBeta           ....  0.004200
 Correlation Functional Correlation     .... LYP
 LDA part of GGA corr.  LDAOpt          .... VWN-5
 Gradients option       PostSCFGGA      .... off
 Hybrid DFT is turned on
   Fraction HF Exchange ScalHFX         ....  0.200000
   Scaling of DF-GGA-X  ScalDFX         ....  0.720000
   Scaling of DF-GGA-C  ScalDFC         ....  0.810000
   Scaling of DF-LDA-C  ScalLDAC        ....  1.000000
   Perturbative correction              ....  0.000000
   Density functional embedding theory  .... OFF
   NL short-range parameter             ....  4.800000


General Settings:
 Integral files         IntName         .... project_8053/ensemble_150_75
 Hartree-Fock type      HFTyp           .... RHF
 Total Charge           Charge          ....    0
 Multiplicity           Mult            ....    1
 Number of Electrons    NEL             ....  102
 Basis Dimension        Dim             ....  149
 Nuclear Repulsion      ENuc            ....    891.1457960910 Eh

Convergence Acceleration:
 DIIS                   CNVDIIS         .... on
   Start iteration      DIISMaxIt       ....    12
   Startup error        DIISStart       ....  0.200000
   # of expansion vecs  DIISMaxEq       ....     5
   Bias factor          DIISBfac        ....   1.050
   Max. coefficient     DIISMaxC        ....  10.000
 Newton-Raphson         CNVNR           .... off
 SOSCF                  CNVSOSCF        .... on
   Start iteration      SOSCFMaxIt      ....   150
   Startup grad/error   SOSCFStart      ....  0.003300
 Level Shifting         CNVShift        .... on
   Level shift para.    LevelShift      ....    0.2500
   Turn off err/grad.   ShiftErr        ....    0.0010
 Zerner damping         CNVZerner       .... off
 Static damping         CNVDamp         .... on
   Fraction old density DampFac         ....    0.7000
   Max. Damping (<1)    DampMax         ....    0.9800
   Min. Damping (>=0)   DampMin         ....    0.0000
   Turn off err/grad.   DampErr         ....    0.1000
 Fernandez-Rico         CNVRico         .... off

SCF Procedure:
 Maximum # iterations   MaxIter         ....   125
 SCF integral mode      SCFMode         .... Direct
   Integral package                     .... LIBINT
 Reset frequency        DirectResetFreq ....    20
 Integral Threshold     Thresh          ....  2.500e-11 Eh
 Primitive CutOff       TCut            ....  2.500e-12 Eh

Convergence Tolerance:
 Convergence Check Mode ConvCheckMode   .... Total+1el-Energy
 Convergence forced     ConvForced      .... 0
 Energy Change          TolE            ....  1.000e-08 Eh
 1-El. energy change                    ....  1.000e-05 Eh
 Orbital Gradient       TolG            ....  1.000e-05
 Orbital Rotation angle TolX            ....  1.000e-05
 DIIS Error             TolErr          ....  5.000e-07


Diagonalization of the overlap matrix:
Smallest eigenvalue                        ... 3.752e-03
Time for diagonalization                   ...    0.005 sec
Threshold for overlap eigenvalues          ... 1.000e-08
Number of eigenvalues below threshold      ... 0
Time for construction of square roots      ...    0.023 sec
Total time needed                          ...    0.028 sec

-------------------
DFT GRID GENERATION
-------------------

General Integration Accuracy     IntAcc      ...  4.340
Radial Grid Type                 RadialGrid  ... Gauss-Chebyshev
Angular Grid (max. acc.)         AngularGrid ... Lebedev-110
Angular grid pruning method      GridPruning ... 3 (G Style)
Weight generation scheme         WeightScheme... Becke
Basis function cutoff            BFCut       ...    1.0000e-11
Integration weight cutoff        WCut        ...    1.0000e-14
Grids for H and He will be reduced by one unit

# of grid points (after initial pruning)     ...  34472 (   0.0 sec)
# of grid points (after weights+screening)   ...  30822 (   0.3 sec)
nearest neighbour list constructed           ...    0.0 sec
Grid point re-assignment to atoms done       ...    0.0 sec
Grid point division into batches done        ...    0.0 sec
Reduced shell lists constructed in    0.3 sec

Total number of grid points                  ...    30822
Total number of batches                      ...      495
Average number of points per batch           ...       62
Average number of grid points per atom       ...     1063
Average number of shells per batch           ...    62.20 (64.13%)
Average number of basis functions per batch  ...   100.58 (67.51%)
Average number of large shells per batch     ...    44.62 (71.73%)
Average number of large basis fcns per batch ...    73.51 (73.08%)
Maximum spatial batch extension              ...  21.57, 21.73, 18.00 au
Average spatial batch extension              ...   3.33,  3.47,  3.27 au

Time for grid setup =    6.610 sec

------------------------------
INITIAL GUESS: MODEL POTENTIAL
------------------------------
Loading Hartree-Fock densities                     ... done
Calculating cut-offs                               ... done
Setting up the integral package                    ... done
Initializing the effective Hamiltonian             ... done
Starting the Coulomb interaction                   ... done (   0.4 sec)
Reading the grid                                   ... done
Mapping shells                                     ... done
Starting the XC term evaluation                    ... done (   0.5 sec)
  promolecular density results
     # of electrons  =    101.990091072
     EX              =    -83.681092435
     EC              =     -3.466863090
     EX+EC           =    -87.147955525
Transforming the Hamiltonian                       ... done (   1.5 sec)
Diagonalizing the Hamiltonian                      ... done (   0.0 sec)
Back transforming the eigenvectors                 ... done (   0.0 sec)
Now organizing SCF variables                       ... done
                      ------------------
                      INITIAL GUESS DONE (  12.3 sec)
                      ------------------
--------------
SCF ITERATIONS
--------------
ITER       Energy         Delta-E        Max-DP      RMS-DP      [F,P]     Damp
               ***  Starting incremental Fock matrix formation  ***
  0   -652.5251487400   0.000000000000 0.07477129  0.00309661  0.2352623 0.7000
  1   -652.6624501545  -0.137301414539 0.04338434  0.00212369  0.1026808 0.7000
                               ***Turning on DIIS***
  2   -652.7141711137  -0.051720959165 0.06364936  0.00337793  0.0332743 0.0000
  3   -652.7992977997  -0.085126686017 0.03015002  0.00140479  0.0544526 0.0000
  4   -652.8163825805  -0.017084780774 0.00857030  0.00043511  0.0092505 0.0000
  5   -652.8173978957  -0.001015315212 0.00269389  0.00013308  0.0038099 0.0000
                      *** Initiating the SOSCF procedure ***
                           *** Shutting down DIIS ***
                      *** Re-Reading the Fockian *** 
                      *** Removing any level shift *** 
ITER      Energy       Delta-E        Grad      Rot      Max-DP    RMS-DP
  6   -652.81746690  -0.0000690087  0.000165  0.000165  0.000858  0.000053
               *** Restarting incremental Fock matrix formation ***
  7   -652.81746947  -0.0000025662  0.000150  0.000254  0.000766  0.000033
  8   -652.81746725   0.0000022193  0.000266  0.000176  0.000537  0.000021
  9   -652.81747079  -0.0000035339  0.000026  0.000043  0.000181  0.000006
 10   -652.81747073   0.0000000574  0.000039  0.000026  0.000110  0.000004
 11   -652.81747084  -0.0000001152  0.000003  0.000006  0.000022  0.000001
 12   -652.81747084   0.0000000026  0.000006  0.000004  0.000014  0.000001
                  ***Gradient check signals convergence***
              ***Rediagonalizing the Fockian in SOSCF/NRSCF***

               *****************************************************
               *                     SUCCESS                       *
               *           SCF CONVERGED AFTER  13 CYCLES          *
               *****************************************************

Setting up the final grid:

General Integration Accuracy     IntAcc      ...  4.670
Radial Grid Type                 RadialGrid  ... Gauss-Chebyshev
Angular Grid (max. acc.)         AngularGrid ... Lebedev-302
Angular grid pruning method      GridPruning ... 3 (G Style)
Weight generation scheme         WeightScheme... Becke
Basis function cutoff            BFCut       ...    1.0000e-11
Integration weight cutoff        WCut        ...    1.0000e-14
Grids for H and He will be reduced by one unit

# of grid points (after initial pruning)     ... 135060 (   0.1 sec)
# of grid points (after weights+screening)   ... 118178 (   0.9 sec)
nearest neighbour list constructed           ...    0.0 sec
Grid point re-assignment to atoms done       ...    0.0 sec
Grid point division into batches done        ...    0.4 sec
Reduced shell lists constructed in    1.4 sec

Total number of grid points                  ...   118178
Total number of batches                      ...     1862
Average number of points per batch           ...       63
Average number of grid points per atom       ...     4075
Average number of shells per batch           ...    57.05 (58.81%)
Average number of basis functions per batch  ...    92.52 (62.09%)
Average number of large shells per batch     ...    39.99 (70.11%)
Average number of large basis fcns per batch ...    66.12 (71.47%)
Maximum spatial batch extension              ...  17.88, 20.62, 18.16 au
Average spatial batch extension              ...   2.20,  2.25,  2.20 au

Final grid set up in    6.4 sec
Final integration                            ... done (  14.7 sec)
Change in XC energy                          ...    -0.000472141
Integrated number of electrons               ...   102.000246655
Previous integrated no of electrons          ...   101.999997220

----------------
TOTAL SCF ENERGY
----------------

Total Energy       :         -652.81794298 Eh          -17764.07934 eV

Components:
Nuclear Repulsion  :          891.14579609 Eh           24249.30992 eV
Electronic Energy  :        -1543.96373908 Eh          -42013.38926 eV
One Electron Energy:        -2659.53605123 Eh          -72369.65516 eV
Two Electron Energy:         1115.57231215 Eh           30356.26590 eV

Virial components:
Potential Energy   :        -1301.81805347 Eh          -35424.27017 eV
Kinetic Energy     :          649.00011048 Eh           17660.19083 eV
Virial Ratio       :            2.00588264


DFT components:
N(Alpha)           :       51.000123327542 electrons
N(Beta)            :       51.000123327542 electrons
N(Total)           :      102.000246655085 electrons
E(X)               :      -67.597194473028 Eh       
E(C)               :       -4.075101421408 Eh       
E(XC)              :      -71.672295894436 Eh       
DFET-embed. en.    :        0.000000000000 Eh       

---------------
SCF CONVERGENCE
---------------

  Last Energy change         ...   -2.6351e-09  Tolerance :   1.0000e-08
  Last MAX-Density change    ...    2.1468e-06  Tolerance :   1.0000e-07
  Last RMS-Density change    ...    8.1997e-08  Tolerance :   5.0000e-09
  Last Orbital Gradient      ...    2.8099e-07  Tolerance :   1.0000e-05
  Last Orbital Rotation      ...    4.6071e-07  Tolerance :   1.0000e-05

             **** THE GBW FILE WAS UPDATED (project_8053/ensemble_150_75.gbw) ****
             **** DENSITY FILE WAS UPDATED (project_8053/ensemble_150_75.scfp) ****
             **** ENERGY FILE WAS UPDATED (project_8053/ensemble_150_75.en.tmp) ****
             **** THE GBW FILE WAS UPDATED (project_8053/ensemble_150_75.gbw) ****
             **** DENSITY FILE WAS UPDATED (project_8053/ensemble_150_75.scfp) ****
----------------
ORBITAL ENERGIES
----------------

  NO   OCC          E(Eh)            E(eV) 
   0   2.0000     -19.164641      -521.4964 
   1   2.0000     -19.155076      -521.2361 
   2   2.0000     -19.144432      -520.9465 
   3   2.0000     -19.141609      -520.8696 
   4   2.0000     -10.275870      -279.6206 
   5   2.0000     -10.259180      -279.1665 
   6   2.0000     -10.244702      -278.7725 
   7   2.0000     -10.242526      -278.7133 
   8   2.0000     -10.239852      -278.6405 
   9   2.0000     -10.224713      -278.2286 
  10   2.0000     -10.206135      -277.7230 
  11   2.0000     -10.190249      -277.2908 
  12   2.0000     -10.189405      -277.2678 
  13   2.0000      -1.041573       -28.3426 
  14   2.0000      -1.028548       -27.9882 
  15   2.0000      -0.984555       -26.7911 
  16   2.0000      -0.959472       -26.1086 
  17   2.0000      -0.796216       -21.6661 
  18   2.0000      -0.788330       -21.4516 
  19   2.0000      -0.771793       -21.0015 
  20   2.0000      -0.728379       -19.8202 
  21   2.0000      -0.691689       -18.8218 
  22   2.0000      -0.615535       -16.7496 
  23   2.0000      -0.599849       -16.3227 
  24   2.0000      -0.591406       -16.0930 
  25   2.0000      -0.572216       -15.5708 
  26   2.0000      -0.529920       -14.4199 
  27   2.0000      -0.510340       -13.8871 
  28   2.0000      -0.502417       -13.6715 
  29   2.0000      -0.486832       -13.2474 
  30   2.0000      -0.468666       -12.7530 
  31   2.0000      -0.453429       -12.3384 
  32   2.0000      -0.446024       -12.1369 
  33   2.0000      -0.436084       -11.8664 
  34   2.0000      -0.426386       -11.6025 
  35   2.0000      -0.420930       -11.4541 
  36   2.0000      -0.409550       -11.1444 
  37   2.0000      -0.399777       -10.8785 
  38   2.0000      -0.387874       -10.5546 
  39   2.0000      -0.373453       -10.1622 
  40   2.0000      -0.364328        -9.9139 
  41   2.0000      -0.353911        -9.6304 
  42   2.0000      -0.349151        -9.5009 
  43   2.0000      -0.340818        -9.2741 
  44   2.0000      -0.323343        -8.7986 
  45   2.0000      -0.315389        -8.5822 
  46   2.0000      -0.299147        -8.1402 
  47   2.0000      -0.279436        -7.6039 
  48   2.0000      -0.271336        -7.3834 
  49   2.0000      -0.254164        -6.9161 
  50   2.0000      -0.242880        -6.6091 
  51   0.0000       0.012747         0.3469 
  52   0.0000       0.055984         1.5234 
  53   0.0000       0.071980         1.9587 
  54   0.0000       0.080490         2.1903 
  55   0.0000       0.087991         2.3944 
  56   0.0000       0.102052         2.7770 
  57   0.0000       0.112227         3.0539 
  58   0.0000       0.119121         3.2415 
  59   0.0000       0.126889         3.4528 
  60   0.0000       0.137416         3.7393 
  61   0.0000       0.139724         3.8021 
  62   0.0000       0.144313         3.9270 
  63   0.0000       0.152445         4.1482 
  64   0.0000       0.161022         4.3816 
  65   0.0000       0.164241         4.4692 
  66   0.0000       0.171337         4.6623 
  67   0.0000       0.176834         4.8119 
  68   0.0000       0.186278         5.0689 
  69   0.0000       0.192660         5.2425 
  70   0.0000       0.201025         5.4702 
  71   0.0000       0.212577         5.7845 
  72   0.0000       0.217842         5.9278 
  73   0.0000       0.228374         6.2144 
  74   0.0000       0.242162         6.5896 
  75   0.0000       0.259347         7.0572 
  76   0.0000       0.261822         7.1246 
  77   0.0000       0.274003         7.4560 
  78   0.0000       0.282733         7.6936 
  79   0.0000       0.289795         7.8857 
  80   0.0000       0.315130         8.5751 
  81   0.0000       0.517698        14.0873 
  82   0.0000       0.536067        14.5871 
  83   0.0000       0.542465        14.7612 
  84   0.0000       0.554462        15.0877 
  85   0.0000       0.561212        15.2714 
  86   0.0000       0.565886        15.3986 
  87   0.0000       0.573783        15.6134 
  88   0.0000       0.579050        15.7568 
  89   0.0000       0.588876        16.0241 
  90   0.0000       0.595135        16.1944 
  91   0.0000       0.613548        16.6955 
  92   0.0000       0.625603        17.0235 
  93   0.0000       0.634066        17.2538 
  94   0.0000       0.637141        17.3375 
  95   0.0000       0.646969        17.6049 
  96   0.0000       0.671681        18.2774 
  97   0.0000       0.672821        18.3084 
  98   0.0000       0.684314        18.6211 
  99   0.0000       0.702415        19.1137 
 100   0.0000       0.718108        19.5407 
 101   0.0000       0.752856        20.4863 
 102   0.0000       0.783662        21.3245 
 103   0.0000       0.793125        21.5820 
 104   0.0000       0.815534        22.1918 
 105   0.0000       0.825585        22.4653 
 106   0.0000       0.840238        22.8640 
 107   0.0000       0.861988        23.4559 
 108   0.0000       0.869342        23.6560 
 109   0.0000       0.873908        23.7802 
 110   0.0000       0.879452        23.9311 
 111   0.0000       0.893743        24.3200 
 112   0.0000       0.896600        24.3977 
 113   0.0000       0.900711        24.5096 
 114   0.0000       0.913874        24.8678 
 115   0.0000       0.924534        25.1579 
 116   0.0000       0.929264        25.2866 
 117   0.0000       0.942665        25.6512 
 118   0.0000       0.948151        25.8005 
 119   0.0000       0.964414        26.2430 
 120   0.0000       0.990747        26.9596 
 121   0.0000       1.005717        27.3670 
 122   0.0000       1.023901        27.8618 
 123   0.0000       1.047346        28.4997 
 124   0.0000       1.066125        29.0107 
 125   0.0000       1.079617        29.3779 
 126   0.0000       1.105124        30.0719 
 127   0.0000       1.125764        30.6336 
 128   0.0000       1.170963        31.8635 
 129   0.0000       1.186075        32.2747 
 130   0.0000       1.193443        32.4752 
 131   0.0000       1.222239        33.2588 
 132   0.0000       1.273084        34.6424 
 133   0.0000       1.325536        36.0697 
 134   0.0000       1.347587        36.6697 
 135   0.0000       1.372264        37.3412 
 136   0.0000       1.384950        37.6864 
 137   0.0000       1.441190        39.2168 
 138   0.0000       1.455366        39.6025 
 139   0.0000       1.482564        40.3426 
 140   0.0000       1.515967        41.2515 
 141   0.0000       1.544370        42.0244 
 142   0.0000       1.596518        43.4435 
 143   0.0000       1.669978        45.4424 
 144   0.0000       1.730506        47.0895 
 145   0.0000       1.888304        51.3834 
 146   0.0000       1.971251        53.6405 
 147   0.0000       2.024381        55.0862 
 148   0.0000       2.124383        57.8074 

                    ********************************
                    * MULLIKEN POPULATION ANALYSIS *
                    ********************************

-----------------------
MULLIKEN ATOMIC CHARGES
-----------------------
   0 C :    0.318993
   1 C :   -0.289449
   2 C :   -0.305201
   3 C :    0.002184
   4 O :   -0.500921
   5 H :    0.175288
   6 H :    0.150690
   7 H :    0.134163
   8 H :    0.141303
   9 H :    0.150170
  10 H :    0.151257
  11 H :    0.141771
  12 C :   -0.056763
  13 H :    0.151878
  14 H :    0.118077
  15 O :   -0.502727
  16 C :    0.076370
  17 C :    0.082081
  18 C :   -0.319126
  19 C :   -0.019869
  20 O :   -0.510557
  21 H :    0.175304
  22 H :    0.173510
  23 O :   -0.586643
  24 H :    0.163236
  25 H :    0.144195
  26 H :    0.144504
  27 H :    0.153428
  28 H :    0.342856
Sum of atomic charges:    0.0000000

--------------------------------
MULLIKEN REDUCED ORBITAL CHARGES
--------------------------------
  0 C s       :     3.223604  s :     3.223604
      pz      :     0.787869  p :     2.457403
      px      :     0.684884
      py      :     0.984650
  1 C s       :     3.322253  s :     3.322253
      pz      :     0.964638  p :     2.967196
      px      :     1.051887
      py      :     0.950671
  2 C s       :     3.314865  s :     3.314865
      pz      :     0.915308  p :     2.990335
      px      :     1.076840
      py      :     0.998187
  3 C s       :     3.259315  s :     3.259315
      pz      :     0.941025  p :     2.738501
      px      :     1.055498
      py      :     0.741979
  4 O s       :     3.946210  s :     3.946210
      pz      :     1.324854  p :     4.554711
      px      :     1.716400
      py      :     1.513457
  5 H s       :     0.824712  s :     0.824712
  6 H s       :     0.849310  s :     0.849310
  7 H s       :     0.865837  s :     0.865837
  8 H s       :     0.858697  s :     0.858697
  9 H s       :     0.849830  s :     0.849830
 10 H s       :     0.848743  s :     0.848743
 11 H s       :     0.858229  s :     0.858229
 12 C s       :     3.302404  s :     3.302404
      pz      :     0.855067  p :     2.754359
      px      :     1.018405
      py      :     0.880887
 13 H s       :     0.848122  s :     0.848122
 14 H s       :     0.881923  s :     0.881923
 15 O s       :     3.954140  s :     3.954140
      pz      :     1.650656  p :     4.548587
      px      :     1.301525
      py      :     1.596407
 16 C s       :     3.270800  s :     3.270800
      pz      :     0.883629  p :     2.652831
      px      :     0.745322
      py      :     1.023880
 17 C s       :     3.287767  s :     3.287767
      pz      :     0.994257  p :     2.630151
      px      :     0.770925
      py      :     0.864970
 18 C s       :     3.324961  s :     3.324961
      pz      :     1.102811  p :     2.994165
      px      :     0.904450
      py      :     0.986904
 19 C s       :     3.269432  s :     3.269432
      pz      :     1.034534  p :     2.750438
      px      :     0.958365
      py      :     0.757538
 20 O s       :     3.947372  s :     3.947372
      pz      :     1.710893  p :     4.563185
      px      :     1.351306
      py      :     1.500986
 21 H s       :     0.824696  s :     0.824696
 22 H s       :     0.826490  s :     0.826490
 23 O s       :     3.955393  s :     3.955393
      pz      :     1.408874  p :     4.631250
      px      :     1.536562
      py      :     1.685813
 24 H s       :     0.836764  s :     0.836764
 25 H s       :     0.855805  s :     0.855805
 26 H s       :     0.855496  s :     0.855496
 27 H s       :     0.846572  s :     0.846572
 28 H s       :     0.657144  s :     0.657144


                     *******************************
                     * LOEWDIN POPULATION ANALYSIS *
                     *******************************

----------------------
LOEWDIN ATOMIC CHARGES
----------------------
   0 C :    0.193345
   1 C :   -0.228784
   2 C :   -0.221267
   3 C :   -0.027517
   4 O :   -0.303362
   5 H :    0.117580
   6 H :    0.118237
   7 H :    0.111733
   8 H :    0.113133
   9 H :    0.110743
  10 H :    0.107538
  11 H :    0.102284
  12 C :   -0.061622
  13 H :    0.117294
  14 H :    0.089814
  15 O :   -0.350122
  16 C :    0.016374
  17 C :    0.042367
  18 C :   -0.236976
  19 C :   -0.038360
  20 O :   -0.317658
  21 H :    0.125482
  22 H :    0.127593
  23 O :   -0.431411
  24 H :    0.126250
  25 H :    0.107827
  26 H :    0.100988
  27 H :    0.109034
  28 H :    0.279461

-------------------------------
LOEWDIN REDUCED ORBITAL CHARGES
-------------------------------
  0 C s       :     2.978997  s :     2.978997
      pz      :     0.914855  p :     2.827658
      px      :     0.829455
      py      :     1.083348
  1 C s       :     2.976430  s :     2.976430
      pz      :     1.071167  p :     3.252354
      px      :     1.112059
      py      :     1.069128
  2 C s       :     2.972603  s :     2.972603
      pz      :     1.038532  p :     3.248664
      px      :     1.127441
      py      :     1.082691
  3 C s       :     2.983379  s :     2.983379
      pz      :     1.039406  p :     3.044138
      px      :     1.119086
      py      :     0.885647
  4 O s       :     3.608424  s :     3.608424
      pz      :     1.385103  p :     4.694938
      px      :     1.748771
      py      :     1.561063
  5 H s       :     0.882420  s :     0.882420
  6 H s       :     0.881763  s :     0.881763
  7 H s       :     0.888267  s :     0.888267
  8 H s       :     0.886867  s :     0.886867
  9 H s       :     0.889257  s :     0.889257
 10 H s       :     0.892462  s :     0.892462
 11 H s       :     0.897716  s :     0.897716
 12 C s       :     3.002673  s :     3.002673
      pz      :     0.993432  p :     3.058949
      px      :     1.084092
      py      :     0.981424
 13 H s       :     0.882706  s :     0.882706
 14 H s       :     0.910186  s :     0.910186
 15 O s       :     3.660539  s :     3.660539
      pz      :     1.682360  p :     4.689583
      px      :     1.363159
      py      :     1.644065
 16 C s       :     2.969702  s :     2.969702
      pz      :     1.038546  p :     3.013924
      px      :     0.876195
      py      :     1.099183
 17 C s       :     2.973009  s :     2.973009
      pz      :     1.067398  p :     2.984624
      px      :     0.922129
      py      :     0.995098
 18 C s       :     2.981017  s :     2.981017
      pz      :     1.134477  p :     3.255958
      px      :     1.037281
      py      :     1.084200
 19 C s       :     2.983358  s :     2.983358
      pz      :     1.095526  p :     3.055002
      px      :     1.063532
      py      :     0.895944
 20 O s       :     3.602248  s :     3.602248
      pz      :     1.743465  p :     4.715410
      px      :     1.413503
      py      :     1.558443
 21 H s       :     0.874518  s :     0.874518
 22 H s       :     0.872407  s :     0.872407
 23 O s       :     3.694658  s :     3.694658
      pz      :     1.446366  p :     4.736754
      px      :     1.578794
      py      :     1.711594
 24 H s       :     0.873750  s :     0.873750
 25 H s       :     0.892173  s :     0.892173
 26 H s       :     0.899012  s :     0.899012
 27 H s       :     0.890966  s :     0.890966
 28 H s       :     0.720539  s :     0.720539


                      *****************************
                      * MAYER POPULATION ANALYSIS *
                      *****************************

  NA   - Mulliken gross atomic population
  ZA   - Total nuclear charge
  QA   - Mulliken gross atomic charge
  VA   - Mayer's total valence
  BVA  - Mayer's bonded valence
  FA   - Mayer's free valence

  ATOM       NA         ZA         QA         VA         BVA        FA
  0 C      5.6810     6.0000     0.3190     3.6292     3.6292     0.0000
  1 C      6.2894     6.0000    -0.2894     3.7325     3.7325     0.0000
  2 C      6.3052     6.0000    -0.3052     3.7545     3.7545    -0.0000
  3 C      5.9978     6.0000     0.0022     3.6620     3.6620     0.0000
  4 O      8.5009     8.0000    -0.5009     1.8170     1.8170    -0.0000
  5 H      0.8247     1.0000     0.1753     0.9305     0.9305     0.0000
  6 H      0.8493     1.0000     0.1507     0.9336     0.9336    -0.0000
  7 H      0.8658     1.0000     0.1342     0.9397     0.9397     0.0000
  8 H      0.8587     1.0000     0.1413     0.9368     0.9368     0.0000
  9 H      0.8498     1.0000     0.1502     0.9348     0.9348    -0.0000
 10 H      0.8487     1.0000     0.1513     0.9256     0.9256     0.0000
 11 H      0.8582     1.0000     0.1418     0.9286     0.9286     0.0000
 12 C      6.0568     6.0000    -0.0568     3.6780     3.6780    -0.0000
 13 H      0.8481     1.0000     0.1519     0.9438     0.9438     0.0000
 14 H      0.8819     1.0000     0.1181     0.9308     0.9308     0.0000
 15 O      8.5027     8.0000    -0.5027     1.7998     1.7998    -0.0000
 16 C      5.9236     6.0000     0.0764     3.5384     3.5384    -0.0000
 17 C      5.9179     6.0000     0.0821     3.6310     3.6310     0.0000
 18 C      6.3191     6.0000    -0.3191     3.7127     3.7127    -0.0000
 19 C      6.0199     6.0000    -0.0199     3.6400     3.6400    -0.0000
 20 O      8.5106     8.0000    -0.5106     1.7799     1.7799     0.0000
 21 H      0.8247     1.0000     0.1753     0.9307     0.9307    -0.0000
 22 H      0.8265     1.0000     0.1735     0.9274     0.9274    -0.0000
 23 O      8.5866     8.0000    -0.5866     1.7718     1.7718    -0.0000
 24 H      0.8368     1.0000     0.1632     0.9368     0.9368     0.0000
 25 H      0.8558     1.0000     0.1442     0.9407     0.9407     0.0000
 26 H      0.8555     1.0000     0.1445     0.9274     0.9274     0.0000
 27 H      0.8466     1.0000     0.1534     0.9286     0.9286    -0.0000
 28 H      0.6571     1.0000     0.3429     0.8549     0.8549     0.0000

  Mayer bond orders larger than 0.100000
B(  0-C ,  1-C ) :   0.9325 B(  0-C ,  4-O ) :   0.9176 B(  0-C ,  5-H ) :   0.9186 
B(  0-C , 15-O ) :   0.8201 B(  1-C ,  2-C ) :   0.9454 B(  1-C ,  6-H ) :   0.9344 
B(  1-C ,  7-H ) :   0.9078 B(  2-C ,  3-C ) :   0.9538 B(  2-C ,  8-H ) :   0.9451 
B(  2-C ,  9-H ) :   0.9441 B(  3-C ,  4-O ) :   0.8425 B(  3-C , 10-H ) :   0.9338 
B(  3-C , 11-H ) :   0.9388 B( 12-C , 13-H ) :   0.9141 B( 12-C , 14-H ) :   0.9015 
B( 12-C , 15-O ) :   0.8973 B( 12-C , 16-C ) :   0.8836 B( 16-C , 17-C ) :   0.8732 
B( 16-C , 20-O ) :   0.8528 B( 16-C , 21-H ) :   0.9286 B( 17-C , 18-C ) :   0.9159 
B( 17-C , 22-H ) :   0.9304 B( 17-C , 23-O ) :   0.8925 B( 18-C , 19-C ) :   0.9282 
B( 18-C , 24-H ) :   0.9423 B( 18-C , 25-H ) :   0.9397 B( 19-C , 20-O ) :   0.8397 
B( 19-C , 26-H ) :   0.9137 B( 19-C , 27-H ) :   0.9378 B( 23-O , 28-H ) :   0.8017 


-------
TIMINGS
-------

Total SCF time: 0 days 0 hours 25 min 56 sec 

Total time                  ....    1556.148 sec
Sum of individual times     ....    1425.610 sec  ( 91.6%)

Fock matrix formation       ....    1354.345 sec  ( 87.0%)
  XC integration            ....     316.283 sec  ( 23.4% of F)
    Basis function eval.    ....       3.264 sec  (  1.0% of XC)
    Density eval.           ....       2.152 sec  (  0.7% of XC)
    XC-Functional eval.     ....       3.072 sec  (  1.0% of XC)
    XC-Potential eval.      ....       1.432 sec  (  0.5% of XC)
Diagonalization             ....      31.787 sec  (  2.0%)
Density matrix formation    ....       0.014 sec  (  0.0%)
Population analysis         ....       1.141 sec  (  0.1%)
Initial guess               ....       5.702 sec  (  0.4%)
Orbital Transformation      ....       0.000 sec  (  0.0%)
Orbital Orthonormalization  ....       0.000 sec  (  0.0%)
DIIS solution               ....      17.591 sec  (  1.1%)
SOSCF solution              ....       2.020 sec  (  0.1%)
Grid generation             ....      13.010 sec  (  0.8%)

-------------------------   --------------------
FINAL SINGLE POINT ENERGY      -652.817942984035
-------------------------   --------------------

------------------------------------------------------------------------------
                         ORCA SCF GRADIENT CALCULATION
------------------------------------------------------------------------------

Gradient of the Kohn-Sham DFT energy:
Kohn-Sham wavefunction type      ... RKS
Hartree-Fock exchange scaling    ...    0.200
Number of operators              ...    1
Number of atoms                  ...   29
Basis set dimensions             ...  149
Integral neglect threshold       ... 2.5e-11
Integral primitive cutoff        ... 2.5e-12

Nuclear repulsion gradient       ... done
One Electron Gradient            ... done
Pre-screening matrix             ... done
Starting the two electron gradient:
Two electron gradient done
Exchange-correlation gradient    ... done

------------------
CARTESIAN GRADIENT
------------------

   1   C   :    0.007058828   -0.002037477   -0.001124086
   2   C   :    0.002170139   -0.002782399   -0.007221690
   3   C   :   -0.001903532    0.000427833   -0.001396433
   4   C   :    0.002098771   -0.004461327   -0.004053663
   5   O   :    0.017241951   -0.008501047    0.018879362
   6   H   :    0.006411783   -0.000186055   -0.003351938
   7   H   :    0.000576688    0.002124957    0.000321716
   8   H   :   -0.010111863    0.003917094   -0.008278443
   9   H   :   -0.000590327    0.000405664   -0.000029678
  10   H   :   -0.000286563    0.000930765   -0.000176563
  11   H   :   -0.000557922    0.000740590    0.001333865
  12   H   :   -0.000377041    0.000939574    0.000764754
  13   C   :   -0.013572368    0.023597362   -0.003647959
  14   H   :   -0.004779182    0.010453831   -0.008539412
  15   H   :    0.003982412    0.002833699   -0.006976952
  16   O   :   -0.007569217   -0.024741651    0.020979825
  17   C   :    0.002045571    0.007579422   -0.021140529
  18   C   :    0.012753696   -0.024731108   -0.022555322
  19   C   :   -0.002807255    0.001419949    0.006790603
  20   C   :   -0.000867455   -0.003913591    0.007606053
  21   O   :    0.001468153   -0.001365245    0.001229200
  22   H   :   -0.000967716   -0.000233661    0.001660500
  23   H   :    0.009125654   -0.006454230   -0.004882784
  24   O   :   -0.038711494   -0.003675030   -0.033230375
  25   H   :    0.000883754    0.000682817   -0.001312470
  26   H   :    0.001523469   -0.001136391    0.000503048
  27   H   :    0.001086563    0.000462130    0.004987178
  28   H   :    0.000262002   -0.000064367   -0.000401451
  29   H   :    0.014412500    0.027767891    0.063263647

Difference to translation invariance:
           :    0.0000000000   -0.0000000000    0.0000000000

Norm of the cartesian gradient     ...    0.1139885786
RMS gradient                       ...    0.0122208584
MAX gradient                       ...    0.0632636471

-------
TIMINGS
-------

Total SCF gradient time            ...       30.286 sec

One electron gradient       ....       0.301 sec  (  1.0%)
Prescreening matrices       ....       0.049 sec  (  0.2%)
Two electron gradient       ....      16.064 sec  ( 53.0%)
XC gradient                 ....       8.942 sec  ( 29.5%)
------------------------------------------------------------------------------
                         ORCA GEOMETRY RELAXATION STEP
------------------------------------------------------------------------------

Reading the OPT-File                    .... done
Getting information on internals        .... done
Copying old internal coords+grads       .... done
Making the new internal coordinates     .... (new redundants).... done
Validating the new internal coordinates .... (new redundants).... done
Calculating the B-matrix                .... done
Calculating the G,G- and P matrices     .... done
Transforming gradient to internals      .... done
Projecting the internal gradient        .... done
Number of atoms                         ....  29
Number of internal coordinates          .... 172
Current Energy                          ....  -652.817942984 Eh
Current gradient norm                   ....     0.113988579 Eh/bohr
Maximum allowed component of the step   ....  0.300
Current trust radius                    ....  0.300
Evaluating the initial hessian          ....  (Almloef) done
Projecting the Hessian                  .... done
Forming the augmented Hessian           .... done
Diagonalizing the augmented Hessian     .... done
Last element of RFO vector              ....  0.911063346
Lowest eigenvalues of augmented Hessian:
 -0.053083831  0.007852441  0.032992847  0.033151845  0.036710423
Length of the computed step             ....  0.452511227
Warning: the length of the step is outside the trust region - taking restricted step instead
The input lambda is                     ....    -0.053084
   iter:   1  x=   -0.107688  g=    2.101779 f(x)=     0.114766
   iter:   2  x=   -0.152752  g=    0.895228 f(x)=     0.040343
   iter:   3  x=   -0.168513  g=    0.551669 f(x)=     0.008694
   iter:   4  x=   -0.169779  g=    0.477605 f(x)=     0.000605
   iter:   5  x=   -0.169786  g=    0.472312 f(x)=     0.000003
   iter:   6  x=   -0.169786  g=    0.472283 f(x)=     0.000000
   iter:   7  x=   -0.169786  g=    0.472283 f(x)=     0.000000
The output lambda is                    ....    -0.169786 (7 iterations)
The final length of the internal step   ....  0.300000000
Converting the step to cartesian space:
 Initial RMS(Int)=    0.0228747855
Transforming coordinates:
 Iter   0:  RMS(Cart)=    0.2001850463 RMS(Int)=    0.4770177888
 Iter   1:  RMS(Cart)=    0.0101940638 RMS(Int)=    0.0049763975
 Iter   2:  RMS(Cart)=    0.0012850391 RMS(Int)=    0.0002283325
 Iter   3:  RMS(Cart)=    0.0001411925 RMS(Int)=    0.0000729098
 Iter   4:  RMS(Cart)=    0.0000178693 RMS(Int)=    0.0000040178
 Iter   5:  RMS(Cart)=    0.0000021362 RMS(Int)=    0.0000010933
 Iter   6:  RMS(Cart)=    0.0000002737 RMS(Int)=    0.0000000722
 Iter   7:  RMS(Cart)=    0.0000000339 RMS(Int)=    0.0000000173
Imposing constraints:
 Iter   0:  RMS(Cart)=    0.0003847262 RMS(Int)=    0.0001551649
 Iter   1:  RMS(Cart)=    0.0001956595 RMS(Int)=    0.0001042005
 Iter   2:  RMS(Cart)=    0.0001022139 RMS(Int)=    0.0000820779
 Iter   3:  RMS(Cart)=    0.0000563379 RMS(Int)=    0.0000724648
 Iter   4:  RMS(Cart)=    0.0000340173 RMS(Int)=    0.0000676900
 Iter   5:  RMS(Cart)=    0.0000231031 RMS(Int)=    0.0000647438
 Iter   6:  RMS(Cart)=    0.0000175159 RMS(Int)=    0.0000625329
 Iter   7:  RMS(Cart)=    0.0000143973 RMS(Int)=    0.0000606528
[...]
  29   2.0000      -0.488147       -13.2832 
  30   2.0000      -0.470432       -12.8011 
  31   2.0000      -0.460155       -12.5214 
  32   2.0000      -0.450271       -12.2525 
  33   2.0000      -0.438999       -11.9458 
  34   2.0000      -0.429423       -11.6852 
  35   2.0000      -0.425095       -11.5674 
  36   2.0000      -0.405977       -11.0472 
  37   2.0000      -0.401187       -10.9169 
  38   2.0000      -0.386503       -10.5173 
  39   2.0000      -0.374833       -10.1997 
  40   2.0000      -0.359906        -9.7935 
  41   2.0000      -0.355658        -9.6779 
  42   2.0000      -0.350804        -9.5459 
  43   2.0000      -0.338216        -9.2033 
  44   2.0000      -0.322811        -8.7841 
  45   2.0000      -0.307444        -8.3660 
  46   2.0000      -0.290583        -7.9072 
  47   2.0000      -0.276822        -7.5327 
  48   2.0000      -0.270067        -7.3489 
  49   2.0000      -0.250596        -6.8191 
  50   2.0000      -0.237401        -6.4600 
  51   0.0000       0.043225         1.1762 
  52   0.0000       0.060327         1.6416 
  53   0.0000       0.083718         2.2781 
  54   0.0000       0.095573         2.6007 
  55   0.0000       0.097638         2.6569 
  56   0.0000       0.110925         3.0184 
  57   0.0000       0.122454         3.3321 
  58   0.0000       0.131341         3.5740 
  59   0.0000       0.132041         3.5930 
  60   0.0000       0.143243         3.8978 
  61   0.0000       0.146804         3.9947 
  62   0.0000       0.152152         4.1403 
  63   0.0000       0.159285         4.3344 
  64   0.0000       0.163869         4.4591 
  65   0.0000       0.168480         4.5846 
  66   0.0000       0.184328         5.0158 
  67   0.0000       0.189823         5.1653 
  68   0.0000       0.192844         5.2475 
  69   0.0000       0.197928         5.3859 
  70   0.0000       0.218728         5.9519 
  71   0.0000       0.223400         6.0790 
  72   0.0000       0.230251         6.2654 
  73   0.0000       0.239100         6.5063 
  74   0.0000       0.246263         6.7012 
  75   0.0000       0.265825         7.2335 
  76   0.0000       0.271033         7.3752 
  77   0.0000       0.280988         7.6461 
  78   0.0000       0.288924         7.8620 
  79   0.0000       0.306055         8.3282 
  80   0.0000       0.332397         9.0450 
  81   0.0000       0.525916        14.3109 
  82   0.0000       0.531553        14.4643 
  83   0.0000       0.538435        14.6516 
  84   0.0000       0.556381        15.1399 
  85   0.0000       0.560350        15.2479 
  86   0.0000       0.567114        15.4320 
  87   0.0000       0.576324        15.6826 
  88   0.0000       0.585988        15.9455 
  89   0.0000       0.588691        16.0191 
  90   0.0000       0.593262        16.1435 
  91   0.0000       0.604770        16.4566 
  92   0.0000       0.621724        16.9180 
  93   0.0000       0.628382        17.0992 
  94   0.0000       0.643057        17.4985 
  95   0.0000       0.646990        17.6055 
  96   0.0000       0.652087        17.7442 
  97   0.0000       0.674337        18.3496 
  98   0.0000       0.680052        18.5051 
  99   0.0000       0.703170        19.1342 
 100   0.0000       0.725273        19.7357 
 101   0.0000       0.758727        20.6460 
 102   0.0000       0.792903        21.5760 
 103   0.0000       0.806816        21.9546 
 104   0.0000       0.831785        22.6340 
 105   0.0000       0.835655        22.7393 
 106   0.0000       0.844257        22.9734 
 107   0.0000       0.867423        23.6038 
 108   0.0000       0.871271        23.7085 
 109   0.0000       0.873449        23.7678 
 110   0.0000       0.881046        23.9745 
 111   0.0000       0.893219        24.3057 
 112   0.0000       0.897592        24.4247 
 113   0.0000       0.905443        24.6384 
 114   0.0000       0.917124        24.9562 
 115   0.0000       0.928933        25.2776 
 116   0.0000       0.939481        25.5646 
 117   0.0000       0.945640        25.7322 
 118   0.0000       0.953235        25.9388 
 119   0.0000       0.965891        26.2832 
 120   0.0000       0.972183        26.4545 
 121   0.0000       1.001160        27.2429 
 122   0.0000       1.019878        27.7523 
 123   0.0000       1.026838        27.9417 
 124   0.0000       1.049065        28.5465 
 125   0.0000       1.090590        29.6765 
 126   0.0000       1.094849        29.7923 
 127   0.0000       1.105278        30.0761 
 128   0.0000       1.153124        31.3781 
 129   0.0000       1.186391        32.2833 
 130   0.0000       1.204406        32.7736 
 131   0.0000       1.207266        32.8514 
 132   0.0000       1.263156        34.3722 
 133   0.0000       1.313243        35.7352 
 134   0.0000       1.345521        36.6135 
 135   0.0000       1.353782        36.8383 
 136   0.0000       1.394881        37.9566 
 137   0.0000       1.441810        39.2337 
 138   0.0000       1.478853        40.2416 
 139   0.0000       1.496954        40.7342 
 140   0.0000       1.519312        41.3426 
 141   0.0000       1.578744        42.9598 
 142   0.0000       1.621223        44.1157 
 143   0.0000       1.670719        45.4626 
 144   0.0000       1.753325        47.7104 
 145   0.0000       1.943670        52.8899 
 146   0.0000       1.976341        53.7790 
 147   0.0000       2.013721        54.7961 
 148   0.0000       2.124938        57.8225 

                    ********************************
                    * MULLIKEN POPULATION ANALYSIS *
                    ********************************

-----------------------
MULLIKEN ATOMIC CHARGES
-----------------------
   0 C :    0.323855
   1 C :   -0.293674
   2 C :   -0.305076
   3 C :    0.003548
   4 O :   -0.498238
   5 H :    0.167641
   6 H :    0.151576
   7 H :    0.141711
   8 H :    0.140966
   9 H :    0.147113
  10 H :    0.150350
  11 H :    0.140686
  12 C :   -0.027106
  13 H :    0.163246
  14 H :    0.104252
  15 O :   -0.517965
  16 C :    0.088220
  17 C :    0.085892
  18 C :   -0.321111
  19 C :   -0.011579
  20 O :   -0.519555
  21 H :    0.169264
  22 H :    0.170953
  23 O :   -0.597839
  24 H :    0.160578
  25 H :    0.132902
  26 H :    0.138504
  27 H :    0.154437
  28 H :    0.356449
Sum of atomic charges:    0.0000000

--------------------------------
MULLIKEN REDUCED ORBITAL CHARGES
--------------------------------
  0 C s       :     3.194568  s :     3.194568
      pz      :     0.794119  p :     2.481577
      px      :     0.696215
      py      :     0.991243
  1 C s       :     3.317378  s :     3.317378
      pz      :     0.972174  p :     2.976296
      px      :     1.036502
      py      :     0.967619
  2 C s       :     3.316071  s :     3.316071
      pz      :     0.918828  p :     2.989005
      px      :     1.075324
      py      :     0.994852
  3 C s       :     3.258055  s :     3.258055
      pz      :     0.918884  p :     2.738396
      px      :     1.055666
      py      :     0.763846
  4 O s       :     3.934160  s :     3.934160
      pz      :     1.251734  p :     4.564079
      px      :     1.778368
      py      :     1.533977
  5 H s       :     0.832359  s :     0.832359
  6 H s       :     0.848424  s :     0.848424
  7 H s       :     0.858289  s :     0.858289
  8 H s       :     0.859034  s :     0.859034
  9 H s       :     0.852887  s :     0.852887
 10 H s       :     0.849650  s :     0.849650
 11 H s       :     0.859314  s :     0.859314
 12 C s       :     3.261774  s :     3.261774
      pz      :     0.879389  p :     2.765332
      px      :     1.009706
      py      :     0.876238
 13 H s       :     0.836754  s :     0.836754
 14 H s       :     0.895748  s :     0.895748
 15 O s       :     3.917680  s :     3.917680
      pz      :     1.684353  p :     4.600284
      px      :     1.319202
      py      :     1.596729
 16 C s       :     3.256465  s :     3.256465
      pz      :     0.873359  p :     2.655315
      px      :     0.736626
      py      :     1.045331
 17 C s       :     3.247915  s :     3.247915
      pz      :     0.994618  p :     2.666193
      px      :     0.777894
      py      :     0.893681
 18 C s       :     3.323559  s :     3.323559
      pz      :     1.088041  p :     2.997551
      px      :     0.921664
      py      :     0.987847
 19 C s       :     3.266461  s :     3.266461
      pz      :     0.990484  p :     2.745118
      px      :     0.977912
      py      :     0.776722
 20 O s       :     3.948633  s :     3.948633
      pz      :     1.628953  p :     4.570922
      px      :     1.426834
      py      :     1.515135
 21 H s       :     0.830736  s :     0.830736
 22 H s       :     0.829047  s :     0.829047
 23 O s       :     3.921426  s :     3.921426
      pz      :     1.589938  p :     4.676413
      px      :     1.538371
      py      :     1.548104
 24 H s       :     0.839422  s :     0.839422
 25 H s       :     0.867098  s :     0.867098
 26 H s       :     0.861496  s :     0.861496
 27 H s       :     0.845563  s :     0.845563
 28 H s       :     0.643551  s :     0.643551


                     *******************************
                     * LOEWDIN POPULATION ANALYSIS *
                     *******************************

----------------------
LOEWDIN ATOMIC CHARGES
----------------------
   0 C :    0.188631
   1 C :   -0.230344
   2 C :   -0.220582
   3 C :   -0.026392
   4 O :   -0.304993
   5 H :    0.111721
   6 H :    0.120356
   7 H :    0.111235
   8 H :    0.113403
   9 H :    0.108881
  10 H :    0.106983
  11 H :    0.101836
  12 C :   -0.050807
  13 H :    0.121230
  14 H :    0.079536
  15 O :   -0.328688
  16 C :    0.006406
  17 C :    0.035997
  18 C :   -0.240844
  19 C :   -0.031362
  20 O :   -0.322543
  21 H :    0.121223
  22 H :    0.121240
  23 O :   -0.405099
  24 H :    0.124359
  25 H :    0.103508
  26 H :    0.097954
  27 H :    0.108642
  28 H :    0.278514

-------------------------------
LOEWDIN REDUCED ORBITAL CHARGES
-------------------------------
  0 C s       :     2.954050  s :     2.954050
      pz      :     0.924350  p :     2.857319
      px      :     0.855905
      py      :     1.077064
  1 C s       :     2.976422  s :     2.976422
      pz      :     1.069463  p :     3.253922
      px      :     1.109456
      py      :     1.075004
  2 C s       :     2.972486  s :     2.972486
      pz      :     1.039142  p :     3.248096
      px      :     1.126382
      py      :     1.082572
  3 C s       :     2.982132  s :     2.982132
      pz      :     1.023785  p :     3.044260
      px      :     1.116533
      py      :     0.903941
  4 O s       :     3.593243  s :     3.593243
      pz      :     1.324500  p :     4.711751
      px      :     1.805321
      py      :     1.581929
  5 H s       :     0.888279  s :     0.888279
  6 H s       :     0.879644  s :     0.879644
  7 H s       :     0.888765  s :     0.888765
  8 H s       :     0.886597  s :     0.886597
  9 H s       :     0.891119  s :     0.891119
 10 H s       :     0.893017  s :     0.893017
 11 H s       :     0.898164  s :     0.898164
 12 C s       :     2.973873  s :     2.973873
      pz      :     1.016669  p :     3.076934
      px      :     1.073174
      py      :     0.987090
 13 H s       :     0.878770  s :     0.878770
 14 H s       :     0.920464  s :     0.920464
 15 O s       :     3.580129  s :     3.580129
      pz      :     1.712163  p :     4.748559
      px      :     1.384969
      py      :     1.651428
 16 C s       :     2.968114  s :     2.968114
      pz      :     1.036799  p :     3.025479
      px      :     0.876715
      py      :     1.111965
 17 C s       :     2.950492  s :     2.950492
      pz      :     1.063738  p :     3.013511
      px      :     0.934463
      py      :     1.015310
 18 C s       :     2.983072  s :     2.983072
      pz      :     1.128029  p :     3.257772
      px      :     1.045815
      py      :     1.083928
 19 C s       :     2.982245  s :     2.982245
      pz      :     1.064398  p :     3.049117
      px      :     1.076014
      py      :     0.908705
 20 O s       :     3.604246  s :     3.604246
      pz      :     1.668647  p :     4.718297
      px      :     1.482782
      py      :     1.566868
 21 H s       :     0.878777  s :     0.878777
 22 H s       :     0.878760  s :     0.878760
 23 O s       :     3.608848  s :     3.608848
      pz      :     1.625841  p :     4.796251
      px      :     1.587077
      py      :     1.583333
 24 H s       :     0.875641  s :     0.875641
 25 H s       :     0.896492  s :     0.896492
 26 H s       :     0.902046  s :     0.902046
 27 H s       :     0.891358  s :     0.891358
 28 H s       :     0.721486  s :     0.721486


                      *****************************
                      * MAYER POPULATION ANALYSIS *
                      *****************************

  NA   - Mulliken gross atomic population
  ZA   - Total nuclear charge
  QA   - Mulliken gross atomic charge
  VA   - Mayer's total valence
  BVA  - Mayer's bonded valence
  FA   - Mayer's free valence

  ATOM       NA         ZA         QA         VA         BVA        FA
  0 C      5.6761     6.0000     0.3239     3.6540     3.6540     0.0000
  1 C      6.2937     6.0000    -0.2937     3.7266     3.7266     0.0000
  2 C      6.3051     6.0000    -0.3051     3.7606     3.7606    -0.0000
  3 C      5.9965     6.0000     0.0035     3.6657     3.6657     0.0000
  4 O      8.4982     8.0000    -0.4982     1.7946     1.7946    -0.0000
  5 H      0.8324     1.0000     0.1676     0.9306     0.9306     0.0000
  6 H      0.8484     1.0000     0.1516     0.9334     0.9334     0.0000
  7 H      0.8583     1.0000     0.1417     0.9446     0.9446     0.0000
  8 H      0.8590     1.0000     0.1410     0.9371     0.9371    -0.0000
  9 H      0.8529     1.0000     0.1471     0.9343     0.9343     0.0000
 10 H      0.8496     1.0000     0.1504     0.9263     0.9263    -0.0000
 11 H      0.8593     1.0000     0.1407     0.9293     0.9293     0.0000
 12 C      6.0271     6.0000    -0.0271     3.6565     3.6565    -0.0000
 13 H      0.8368     1.0000     0.1632     0.9357     0.9357    -0.0000
 14 H      0.8957     1.0000     0.1043     0.9380     0.9380     0.0000
 15 O      8.5180     8.0000    -0.5180     1.7551     1.7551    -0.0000
 16 C      5.9118     6.0000     0.0882     3.5310     3.5310    -0.0000
 17 C      5.9141     6.0000     0.0859     3.6450     3.6450     0.0000
 18 C      6.3211     6.0000    -0.3211     3.7220     3.7220     0.0000
 19 C      6.0116     6.0000    -0.0116     3.6578     3.6578     0.0000
 20 O      8.5196     8.0000    -0.5196     1.7800     1.7800    -0.0000
 21 H      0.8307     1.0000     0.1693     0.9307     0.9307     0.0000
 22 H      0.8290     1.0000     0.1710     0.9239     0.9239    -0.0000
 23 O      8.5978     8.0000    -0.5978     1.7543     1.7543    -0.0000
 24 H      0.8394     1.0000     0.1606     0.9356     0.9356    -0.0000
 25 H      0.8671     1.0000     0.1329     0.9421     0.9421    -0.0000
 26 H      0.8615     1.0000     0.1385     0.9265     0.9265    -0.0000
 27 H      0.8456     1.0000     0.1544     0.9267     0.9267     0.0000
 28 H      0.6436     1.0000     0.3564     0.8367     0.8367    -0.0000

  Mayer bond orders larger than 0.100000
B(  0-C ,  1-C ) :   0.9347 B(  0-C ,  4-O ) :   0.9203 B(  0-C ,  5-H ) :   0.9223 
B(  0-C , 15-O ) :   0.8255 B(  1-C ,  2-C ) :   0.9457 B(  1-C ,  6-H ) :   0.9360 
B(  1-C ,  7-H ) :   0.9218 B(  2-C ,  3-C ) :   0.9531 B(  2-C ,  8-H ) :   0.9455 
B(  2-C ,  9-H ) :   0.9451 B(  3-C ,  4-O ) :   0.8425 B(  3-C , 10-H ) :   0.9347 
B(  3-C , 11-H ) :   0.9399 B( 12-C , 13-H ) :   0.9207 B( 12-C , 14-H ) :   0.9120 
B( 12-C , 15-O ) :   0.8803 B( 12-C , 16-C ) :   0.8888 B( 16-C , 17-C ) :   0.8683 
B( 16-C , 20-O ) :   0.8544 B( 16-C , 21-H ) :   0.9278 B( 17-C , 18-C ) :   0.9221 
B( 17-C , 22-H ) :   0.9316 B( 17-C , 23-O ) :   0.9022 B( 18-C , 19-C ) :   0.9395 
B( 18-C , 24-H ) :   0.9414 B( 18-C , 25-H ) :   0.9415 B( 19-C , 20-O ) :   0.8433 
B( 19-C , 26-H ) :   0.9237 B( 19-C , 27-H ) :   0.9382 B( 23-O , 28-H ) :   0.7982 


-------
TIMINGS
-------

Total SCF time: 0 days 0 hours 5 min 4 sec 

Total time                  ....     304.308 sec
Sum of individual times     ....     185.381 sec  ( 60.9%)

Fock matrix formation       ....     166.831 sec  ( 54.8%)
  XC integration            ....      73.995 sec  ( 44.4% of F)
    Basis function eval.    ....       1.475 sec  (  2.0% of XC)
    Density eval.           ....       0.966 sec  (  1.3% of XC)
    XC-Functional eval.     ....       0.359 sec  (  0.5% of XC)
    XC-Potential eval.      ....       0.592 sec  (  0.8% of XC)
Diagonalization             ....       0.057 sec  (  0.0%)
Density matrix formation    ....       0.005 sec  (  0.0%)
Population analysis         ....       0.084 sec  (  0.0%)
Initial guess               ....       6.420 sec  (  2.1%)
Orbital Transformation      ....       0.000 sec  (  0.0%)
Orbital Orthonormalization  ....       0.004 sec  (  0.0%)
DIIS solution               ....       0.002 sec  (  0.0%)
SOSCF solution              ....       0.271 sec  (  0.1%)
Grid generation             ....      11.711 sec  (  3.8%)

-------------------------   --------------------
FINAL SINGLE POINT ENERGY      -652.852470560492
-------------------------   --------------------

                                *** OPTIMIZATION RUN DONE ***

                            ***************************************
                            *     ORCA property calculations      *
                            ***************************************

                                    ---------------------
                                    Active property flags
                                    ---------------------
   (+) Dipole Moment


------------------------------------------------------------------------------
                       ORCA ELECTRIC PROPERTIES CALCULATION
------------------------------------------------------------------------------

Dipole Moment Calculation                       ... on
Quadrupole Moment Calculation                   ... off
Polarizability Calculation                      ... off
GBWName                                         ... project_8053/ensemble_150_75.gbw
Electron density file                           ... project_8053/ensemble_150_75.scfp
The origin for moment calculation is the CENTER OF MASS  = (-41.622513, 51.803632 85.324520)

-------------
DIPOLE MOMENT
-------------
                                X             Y             Z
Electronic contribution:     -3.49072      -5.57291       0.10690
Nuclear contribution   :      4.20663       7.46671      -0.66264
                        -----------------------------------------
Total Dipole Moment    :      0.71591       1.89380      -0.55574
                        -----------------------------------------
Magnitude (a.u.)       :      2.09949
Magnitude (Debye)      :      5.33649



--------------------
Rotational spectrum 
--------------------
 
Rotational constants in cm-1:     0.053796     0.014550     0.013698 
Rotational constants in MHz :  1612.768979   436.191311   410.651390 

 Dipole components along the rotational axes: 
x,y,z [a.u.] :    -0.541154    -1.069708    -1.723587 
x,y,z [Debye]:    -1.375503    -2.718983    -4.381011 

 

Timings for individual modules:

Sum of individual times         ...     6683.661 sec (= 111.394 min)
GTO integral calculation        ...      211.977 sec (=   3.533 min)   3.2 %
SCF iterations                  ...     5967.159 sec (=  99.453 min)  89.3 %
SCF Gradient evaluation         ...      334.087 sec (=   5.568 min)   5.0 %
Geometry relaxation             ...      170.439 sec (=   2.841 min)   2.6 %
                             ****ORCA TERMINATED NORMALLY****
TOTAL RUN TIME: 0 days 1 hours 57 minutes 30 seconds 664 msec
