
                                 *****************
                                 * O   R   C   A *
                                 *****************

           --- An Ab Initio, DFT and Semiempirical electronic structure package ---

                  #######################################################
                  #                        -***-                        #
                  #          Department of theory and spectroscopy      #
                  #               Directorship: Frank Neese             #
                  #        Max Planck Institute fuer Kohlenforschung    #
                  #                Kaiser Wilhelm Platz 1               #
                  #                 D-45470 Muelheim/Ruhr               #
                  #                      Germany                        #
                  #                                                     #
                  #                  All rights reserved                #
                  #                        -***-                        #
                  #######################################################


                         Program Version 4.2.0 -  RELEASE  -


 With contributions from (in alphabetic order):
   Daniel Aravena         : Magnetic Suceptibility
   Michael Atanasov       : Ab Initio Ligand Field Theory (pilot matlab implementation)
   Alexander A. Auer      : GIAO ZORA, VPT2
   Ute Becker             : Parallelization
   Giovanni Bistoni       : ED, misc. LED, open-shell LED, HFLED
   Martin Brehm           : Molecular dynamics
   Dmytro Bykov           : SCF Hessian
   Vijay G. Chilkuri      : MRCI spin determinant printing, contributions to CSF-ICE
   Dipayan Datta          : RHF DLPNO-CCSD density
   Achintya Kumar Dutta   : EOM-CC, STEOM-CC
   Dmitry Ganyushin       : Spin-Orbit,Spin-Spin,Magnetic field MRCI
   Miquel Garcia          : C-PCM Hessian, Gaussian charge scheme
   Yang Guo               : DLPNO-NEVPT2, CIM, IAO-localization
   Andreas Hansen         : Spin unrestricted coupled pair/coupled cluster methods
   Benjamin Helmich-Paris : CASSCF linear response (MC-RPA)
   Lee Huntington         : MR-EOM, pCC
   Robert Izsak           : Overlap fitted RIJCOSX, COSX-SCS-MP3, EOM
   Christian Kollmar      : KDIIS, OOCD, Brueckner-CCSD(T), CCSD density
   Simone Kossmann        : Meta GGA functionals, TD-DFT gradient, OOMP2, MP2 Hessian
   Martin Krupicka        : AUTO-CI
   Lucas Lang             : DCDCAS
   Dagmar Lenk            : GEPOL surface, SMD
   Dimitrios Liakos       : Extrapolation schemes; Compound Job, initial MDCI parallelization
   Dimitrios Manganas     : Further ROCIS development; embedding schemes
   Dimitrios Pantazis     : SARC Basis sets
   Taras Petrenko         : DFT Hessian,TD-DFT gradient, ASA, ECA, R-Raman, ABS, FL, XAS/XES, NRVS
   Peter Pinski           : DLPNO-MP2, DLPNO-MP2 Gradient
   Christoph Reimann      : Effective Core Potentials
   Marius Retegan         : Local ZFS, SOC
   Christoph Riplinger    : Optimizer, TS searches, QM/MM, DLPNO-CCSD(T), (RO)-DLPNO pert. Triples
   Tobias Risthaus        : Range-separated hybrids, TD-DFT gradient, RPA, STAB
   Michael Roemelt        : Original ROCIS implementation
   Masaaki Saitow         : Open-shell DLPNO-CCSD energy and density
   Barbara Sandhoefer     : DKH picture change effects
   Avijit Sen             : IP-ROCIS
   Kantharuban Sivalingam : CASSCF convergence, NEVPT2, FIC-MRCI
   Bernardo de Souza      : ESD, SOC TD-DFT
   Georgi Stoychev        : AutoAux, RI-MP2 NMR
   Willem Van den Heuvel  : Paramagnetic NMR
   Boris Wezisla          : Elementary symmetry handling
   Frank Wennmohs         : Technical directorship


 We gratefully acknowledge several colleagues who have allowed us to
 interface, adapt or use parts of their codes:
   Stefan Grimme, W. Hujo, H. Kruse,             : VdW corrections, initial TS optimization,
                  C. Bannwarth                     DFT functionals, gCP, sTDA/sTD-DF
   Ed Valeev, F. Pavosevic, A. Kumar             : LibInt (2-el integral package), F12 methods
   Garnet Chan, S. Sharma, J. Yang, R. Olivares  : DMRG
   Ulf Ekstrom                                   : XCFun DFT Library
   Mihaly Kallay                                 : mrcc  (arbitrary order and MRCC methods)
   Andreas Klamt, Michael Diedenhofen            : otool_cosmo (COSMO solvation model)
   Jiri Pittner, Ondrej Demel                    : Mk-CCSD
   Frank Weinhold                                : gennbo (NPA and NBO analysis)
   Christopher J. Cramer and Donald G. Truhlar   : smd solvation model
   Lars Goerigk                                  : TD-DFT with DH, B97 family of functionals
   V. Asgeirsson, H. Jonsson                     : NEB implementation
   FAccTs GmbH                                   : IRC, NEB, NEB-TS, Multilevel, MM, QM/MM, CI optimization
   S Lehtola, MJT Oliveira, MAL Marques          : LibXC Library


 Your calculation uses the libint2 library for the computation of 2-el integrals
 For citations please refer to: http://libint.valeyev.net

 Your ORCA version has been built with support for libXC version: 4.2.3
 For citations please refer to: https://tddft.org/programs/libxc/

 This ORCA versions uses:
   CBLAS   interface :  Fast vector & matrix operations
   LAPACKE interface :  Fast linear algebra routines
   SCALAPACK package :  Parallel linear algebra routines


----- Orbital basis set information -----
Your calculation utilizes the basis: 6-31G
   H-He, Li-Ne : W. J. Hehre, R. Ditchfield and J.A. Pople, J. Chem. Phys. 56, 2257 (1972).
                 Note: He and Ne are unpublished basis sets taken from the Gaussian program.
                 Note: Li and B from J. D. Dill and J. A. Pople, J. Chem. Phys. 62, 2921 (1975).
   Na - Ar     : M. M. Francl, W. J. Pietro, W. J. Hehre, J. S. Binkley, M. S. Gordon, 
                 D. J. DeFrees and J. A. Pople, J. Chem. Phys. 77, 3654 (1982).
   K - Zn      : V. A. Rassolov, J. A. Pople, M. A. Ratner, and T. L. Windus, J. Chem. Phys. 109, 1223 (1998).

================================================================================
                                        WARNINGS
                       Please study these warnings very carefully!
================================================================================


WARNING: Geometry Optimization
  ===> : Switching off AutoStart
         For restart on a previous wavefunction, please use MOREAD

INFO   : the flag for use of LIBINT has been found!

================================================================================
                                       INPUT FILE
================================================================================
NAME = project_8050/ensemble_345_225.inp
|  1> # Test redundant internal optimization
|  2> #
|  3> ! RKS B3LYP  Opt TightSCF SmallPrint
|  4> 
|  5> %basis
|  6>         Basis "6-31G"
|  7> end
|  8> 
|  9> %geom
| 10> Constraints
| 11> { D 4  0  15  12  345.0   C } # D for Dihedral angle
| 12> { D 0  15  12  16  225.0   C } # D for Dihedral angle
| 13> { D 0  4  3  2   C } # D for Dihedral angle
| 14> { D 4  3  2  1   C } # D for Dihedral angle
| 15> { D 3  2  1  0   C } # D for Dihedral angle
| 16> { D 2  1  0  4   C } # D for Dihedral angle
| 17> { D 1  0  4  3   C } # D for Dihedral angle
| 18> { D 16  20  19  18   C } # D for Dihedral angle
| 19> { D 20  19  18  17   C } # D for Dihedral angle
| 20> { D 19  18  17  16   C } # D for Dihedral angle
| 21> { D 18  17  16  20   C } # D for Dihedral angle
| 22> { D 17  16  20  19   C } # D for Dihedral angle
| 23> { D 15  12  16  20   C } # D for Dihedral angle
| 24> end
| 25> end
| 26> 
| 27> 
| 28> #%pal 
| 29> #nprocs 8
| 30> #end
| 31> 
| 32> * xyz 0 1
| 33> C  -21.048   26.222   46.251
| 34> C  -20.361   27.558   45.944
| 35> C  -20.329   28.222   47.341
| 36> C  -20.110   27.022   48.296
| 37> O  -20.473   25.807   47.535
| 38> H  -20.833   25.428   45.533
| 39> H  -19.344   27.382   45.576
| 40> H  -20.898   28.157   45.201
| 41> H  -19.543   28.978   47.434
| 42> H  -21.289   28.710   47.548
| 43> H  -20.733   27.082   49.195
| 44> H  -19.064   26.913   48.597
| 45> C  -23.221   25.764   47.645
| 46> H  -22.499   25.081   48.110
| 47> H  -23.474   26.544   48.375
| 48> O  -22.586   26.394   46.375
| 49> C  -24.518   24.967   47.336
| 50> C  -24.226   23.749   46.453
| 51> C  -23.668   22.740   47.484
| 52> C  -24.491   23.051   48.760
| 53> O  -25.074   24.396   48.567
| 54> H  -25.269   25.649   46.933
| 55> O  -25.544   23.219   45.824
| 56> H  -23.521   23.964   45.643
| 57> H  -23.776   21.700   47.161
| 58> H  -22.602   22.929   47.656
| 59> H  -23.875   23.053   49.666
| 60> H  -25.323   22.355   48.900
| 61> H  -26.268   22.997   46.617
| 62> *
| 63> 
| 64>                          ****END OF INPUT****
================================================================================

                       *****************************
                       * Geometry Optimization Run *
                       *****************************

Geometry optimization settings:
Update method            Update   .... BFGS
Choice of coordinates    CoordSys .... Z-matrix Internals
Initial Hessian          InHess   .... Almoef's Model

Convergence Tolerances:
Energy Change            TolE     ....  5.0000e-06 Eh
Max. Gradient            TolMAXG  ....  3.0000e-04 Eh/bohr
RMS Gradient             TolRMSG  ....  1.0000e-04 Eh/bohr
Max. Displacement        TolMAXD  ....  4.0000e-03 bohr
RMS Displacement         TolRMSD  ....  2.0000e-03 bohr
Strict Convergence                ....  False
------------------------------------------------------------------------------
                        ORCA OPTIMIZATION COORDINATE SETUP
------------------------------------------------------------------------------

The optimization will be done in new redundant internal coordinates
Making redundant internal coordinates   ...  (new redundants) done
Evaluating the initial hessian          ...  (Almloef) done
Evaluating the coordinates              ...  done
Calculating the B-matrix                .... done
Calculating the G-matrix                .... done
Diagonalizing the G-matrix              .... done
Imposing constraints:
 Iter   0:  RMS(Cart)=    0.0001515723 RMS(Int)=    0.0000661546
 Iter   1:  RMS(Cart)=    0.0000683254 RMS(Int)=    0.0000359119
 Iter   2:  RMS(Cart)=    0.0000315893 RMS(Int)=    0.0000213701
 Iter   3:  RMS(Cart)=    0.0000154333 RMS(Int)=    0.0000139886
 Iter   4:  RMS(Cart)=    0.0000083090 RMS(Int)=    0.0000099964
 Iter   5:  RMS(Cart)=    0.0000050315 RMS(Int)=    0.0000077298
 Iter   6:  RMS(Cart)=    0.0000033384 RMS(Int)=    0.0000064091
 Iter   7:  RMS(Cart)=    0.0000023280 RMS(Int)=    0.0000056252
 Iter   8:  RMS(Cart)=    0.0000016673 RMS(Int)=    0.0000051437
 Iter   9:  RMS(Cart)=    0.0000012265 RMS(Int)=    0.0000048289
 Iter  10:  RMS(Cart)=    0.0000009426 RMS(Int)=    0.0000046044
 Iter  11:  RMS(Cart)=    0.0000007736 RMS(Int)=    0.0000044287
 Iter  12:  RMS(Cart)=    0.0000006827 RMS(Int)=    0.0000042801
 Iter  13:  RMS(Cart)=    0.0000006379 RMS(Int)=    0.0000041472
 Iter  14:  RMS(Cart)=    0.0000006159 RMS(Int)=    0.0000040240
 Iter  15:  RMS(Cart)=    0.0000006033 RMS(Int)=    0.0000039075
 Iter  16:  RMS(Cart)=    0.0000005935 RMS(Int)=    0.0000037962
 Iter  17:  RMS(Cart)=    0.0000005836 RMS(Int)=    0.0000036890
 Iter  18:  RMS(Cart)=    0.0000005728 RMS(Int)=    0.0000035856
 Iter  19:  RMS(Cart)=    0.0000005609 RMS(Int)=    0.0000034856
 Iter  20:  RMS(Cart)=    0.0000005482 RMS(Int)=    0.0000033887
 Iter  21:  RMS(Cart)=    0.0000005349 RMS(Int)=    0.0000032950
 Iter  22:  RMS(Cart)=    0.0000005213 RMS(Int)=    0.0000032041
 Iter  23:  RMS(Cart)=    0.0000005075 RMS(Int)=    0.0000031161
 Iter  24:  RMS(Cart)=    0.0000004937 RMS(Int)=    0.0000030308
 Iter  25:  RMS(Cart)=    0.0000004801 RMS(Int)=    0.0000029481
 Iter  26:  RMS(Cart)=    0.0000004667 RMS(Int)=    0.0000028679
 Iter  27:  RMS(Cart)=    0.0000004535 RMS(Int)=    0.0000027902
 Iter  28:  RMS(Cart)=    0.0000004407 RMS(Int)=    0.0000027149
 Iter  29:  RMS(Cart)=    0.0000004281 RMS(Int)=    0.0000026418
 Iter  30:  RMS(Cart)=    0.0000004160 RMS(Int)=    0.0000025710
 Iter  31:  RMS(Cart)=    0.0000004041 RMS(Int)=    0.0000025023
 Iter  32:  RMS(Cart)=    0.0000003926 RMS(Int)=    0.0000024357
 Iter  33:  RMS(Cart)=    0.0000003814 RMS(Int)=    0.0000023711
 Iter  34:  RMS(Cart)=    0.0000003706 RMS(Int)=    0.0000023084
 Iter  35:  RMS(Cart)=    0.0000003601 RMS(Int)=    0.0000022476
 Iter  36:  RMS(Cart)=    0.0000003499 RMS(Int)=    0.0000021886
 Iter  37:  RMS(Cart)=    0.0000003400 RMS(Int)=    0.0000021314
 Iter  38:  RMS(Cart)=    0.0000003304 RMS(Int)=    0.0000020759
 Iter  39:  RMS(Cart)=    0.0000003211 RMS(Int)=    0.0000020221
 Iter  40:  RMS(Cart)=    0.0000003121 RMS(Int)=    0.0000019698
 Iter  41:  RMS(Cart)=    0.0000003033 RMS(Int)=    0.0000019191
 Iter  42:  RMS(Cart)=    0.0000002948 RMS(Int)=    0.0000018698
 Iter  43:  RMS(Cart)=    0.0000002866 RMS(Int)=    0.0000018220
 Iter  44:  RMS(Cart)=    0.0000002786 RMS(Int)=    0.0000017757
 Iter  45:  RMS(Cart)=    0.0000002709 RMS(Int)=    0.0000017306
 Iter  46:  RMS(Cart)=    0.0000002634 RMS(Int)=    0.0000016869
 Iter  47:  RMS(Cart)=    0.0000002561 RMS(Int)=    0.0000016445
 Iter  48:  RMS(Cart)=    0.0000002490 RMS(Int)=    0.0000016033
 Iter  49:  RMS(Cart)=    0.0000002422 RMS(Int)=    0.0000015633
 Iter  50:  RMS(Cart)=    0.0000002355 RMS(Int)=    0.0000015244
 Iter  51:  RMS(Cart)=    0.0000002291 RMS(Int)=    0.0000014867
 Iter  52:  RMS(Cart)=    0.0000002228 RMS(Int)=    0.0000014501
 Iter  53:  RMS(Cart)=    0.0000002167 RMS(Int)=    0.0000014145
 Iter  54:  RMS(Cart)=    0.0000002108 RMS(Int)=    0.0000013799
 Iter  55:  RMS(Cart)=    0.0000002051 RMS(Int)=    0.0000013463
 Iter  56:  RMS(Cart)=    0.0000001996 RMS(Int)=    0.0000013137
 Iter  57:  RMS(Cart)=    0.0000001942 RMS(Int)=    0.0000012820
 Iter  58:  RMS(Cart)=    0.0000001889 RMS(Int)=    0.0000012512
 Iter  59:  RMS(Cart)=    0.0000001838 RMS(Int)=    0.0000012212
 Iter  60:  RMS(Cart)=    0.0000001789 RMS(Int)=    0.0000011922
 Iter  61:  RMS(Cart)=    0.0000001741 RMS(Int)=    0.0000011639
 Iter  62:  RMS(Cart)=    0.0000001695 RMS(Int)=    0.0000011364
 Iter  63:  RMS(Cart)=    0.0000001650 RMS(Int)=    0.0000011097
 Iter  64:  RMS(Cart)=    0.0000001606 RMS(Int)=    0.0000010838
 Iter  65:  RMS(Cart)=    0.0000001563 RMS(Int)=    0.0000010585
 Iter  66:  RMS(Cart)=    0.0000001522 RMS(Int)=    0.0000010340
 Iter  67:  RMS(Cart)=    0.0000001482 RMS(Int)=    0.0000010102
 Iter  68:  RMS(Cart)=    0.0000001443 RMS(Int)=    0.0000009870
 Iter  69:  RMS(Cart)=    0.0000001405 RMS(Int)=    0.0000009644
 Iter  70:  RMS(Cart)=    0.0000001368 RMS(Int)=    0.0000009425
 Iter  71:  RMS(Cart)=    0.0000001332 RMS(Int)=    0.0000009212
 Iter  72:  RMS(Cart)=    0.0000001297 RMS(Int)=    0.0000009004
 Iter  73:  RMS(Cart)=    0.0000001264 RMS(Int)=    0.0000008803
 Iter  74:  RMS(Cart)=    0.0000001231 RMS(Int)=    0.0000008607
 Iter  75:  RMS(Cart)=    0.0000001199 RMS(Int)=    0.0000008416
 Iter  76:  RMS(Cart)=    0.0000001168 RMS(Int)=    0.0000008230
 Iter  77:  RMS(Cart)=    0.0000001138 RMS(Int)=    0.0000008049
 Iter  78:  RMS(Cart)=    0.0000001109 RMS(Int)=    0.0000007873
 Iter  79:  RMS(Cart)=    0.0000001080 RMS(Int)=    0.0000007702
 Iter  80:  RMS(Cart)=    0.0000001053 RMS(Int)=    0.0000007536
 Iter  81:  RMS(Cart)=    0.0000001026 RMS(Int)=    0.0000007374
 Iter  82:  RMS(Cart)=    0.0000001000 RMS(Int)=    0.0000007216
 Iter  83:  RMS(Cart)=    0.0000000974 RMS(Int)=    0.0000007062
 Iter  84:  RMS(Cart)=    0.0000000950 RMS(Int)=    0.0000006913
 Iter  85:  RMS(Cart)=    0.0000000926 RMS(Int)=    0.0000006767
 Iter  86:  RMS(Cart)=    0.0000000902 RMS(Int)=    0.0000006626
 Iter  87:  RMS(Cart)=    0.0000000880 RMS(Int)=    0.0000006488
 Iter  88:  RMS(Cart)=    0.0000000858 RMS(Int)=    0.0000006353
 Iter  89:  RMS(Cart)=    0.0000000836 RMS(Int)=    0.0000006222
 Iter  90:  RMS(Cart)=    0.0000000815 RMS(Int)=    0.0000006095
 Iter  91:  RMS(Cart)=    0.0000000795 RMS(Int)=    0.0000005971
 Iter  92:  RMS(Cart)=    0.0000000775 RMS(Int)=    0.0000005850
 Iter  93:  RMS(Cart)=    0.0000000756 RMS(Int)=    0.0000005732
 Iter  94:  RMS(Cart)=    0.0000000737 RMS(Int)=    0.0000005617
 Iter  95:  RMS(Cart)=    0.0000000719 RMS(Int)=    0.0000005505
 Iter  96:  RMS(Cart)=    0.0000000702 RMS(Int)=    0.0000005396
 Iter  97:  RMS(Cart)=    0.0000000685 RMS(Int)=    0.0000005290
 Iter  98:  RMS(Cart)=    0.0000000668 RMS(Int)=    0.0000005186
 Iter  99:  RMS(Cart)=    0.0000000652 RMS(Int)=    0.0000005085
 RMS(Cart) too big - taking linear step, building new B-matrix and trying again
Imposing constraints:
 Iter   0:  RMS(Cart)=    0.0000683233 RMS(Int)=    0.0000359116
 Iter   1:  RMS(Cart)=    0.0000315880 RMS(Int)=    0.0000213699
 Iter   2:  RMS(Cart)=    0.0000154324 RMS(Int)=    0.0000139885
 Iter   3:  RMS(Cart)=    0.0000083084 RMS(Int)=    0.0000099965
 Iter   4:  RMS(Cart)=    0.0000050312 RMS(Int)=    0.0000077300
 Iter   5:  RMS(Cart)=    0.0000033382 RMS(Int)=    0.0000064093
 Iter   6:  RMS(Cart)=    0.0000023279 RMS(Int)=    0.0000056254
 Iter   7:  RMS(Cart)=    0.0000016672 RMS(Int)=    0.0000051439
 Iter   8:  RMS(Cart)=    0.0000012264 RMS(Int)=    0.0000048291
 Iter   9:  RMS(Cart)=    0.0000009426 RMS(Int)=    0.0000046046
 Iter  10:  RMS(Cart)=    0.0000007736 RMS(Int)=    0.0000044289
 Iter  11:  RMS(Cart)=    0.0000006827 RMS(Int)=    0.0000042803
 Iter  12:  RMS(Cart)=    0.0000006379 RMS(Int)=    0.0000041474
 Iter  13:  RMS(Cart)=    0.0000006159 RMS(Int)=    0.0000040242
 Iter  14:  RMS(Cart)=    0.0000006033 RMS(Int)=    0.0000039077
 Iter  15:  RMS(Cart)=    0.0000005935 RMS(Int)=    0.0000037963
 Iter  16:  RMS(Cart)=    0.0000005836 RMS(Int)=    0.0000036892
 Iter  17:  RMS(Cart)=    0.0000005728 RMS(Int)=    0.0000035857
 Iter  18:  RMS(Cart)=    0.0000005610 RMS(Int)=    0.0000034857
 Iter  19:  RMS(Cart)=    0.0000005482 RMS(Int)=    0.0000033889
 Iter  20:  RMS(Cart)=    0.0000005349 RMS(Int)=    0.0000032951
 Iter  21:  RMS(Cart)=    0.0000005213 RMS(Int)=    0.0000032043
 Iter  22:  RMS(Cart)=    0.0000005075 RMS(Int)=    0.0000031162
 Iter  23:  RMS(Cart)=    0.0000004937 RMS(Int)=    0.0000030309
 Iter  24:  RMS(Cart)=    0.0000004801 RMS(Int)=    0.0000029482
 Iter  25:  RMS(Cart)=    0.0000004667 RMS(Int)=    0.0000028680
 Iter  26:  RMS(Cart)=    0.0000004535 RMS(Int)=    0.0000027903
 Iter  27:  RMS(Cart)=    0.0000004407 RMS(Int)=    0.0000027150
 Iter  28:  RMS(Cart)=    0.0000004282 RMS(Int)=    0.0000026419
 Iter  29:  RMS(Cart)=    0.0000004160 RMS(Int)=    0.0000025711
 Iter  30:  RMS(Cart)=    0.0000004041 RMS(Int)=    0.0000025024
 Iter  31:  RMS(Cart)=    0.0000003926 RMS(Int)=    0.0000024358
 Iter  32:  RMS(Cart)=    0.0000003814 RMS(Int)=    0.0000023712
 Iter  33:  RMS(Cart)=    0.0000003706 RMS(Int)=    0.0000023085
 Iter  34:  RMS(Cart)=    0.0000003601 RMS(Int)=    0.0000022477
 Iter  35:  RMS(Cart)=    0.0000003499 RMS(Int)=    0.0000021887
 Iter  36:  RMS(Cart)=    0.0000003400 RMS(Int)=    0.0000021315
 Iter  37:  RMS(Cart)=    0.0000003304 RMS(Int)=    0.0000020760
 Iter  38:  RMS(Cart)=    0.0000003211 RMS(Int)=    0.0000020221
 Iter  39:  RMS(Cart)=    0.0000003121 RMS(Int)=    0.0000019698
 Iter  40:  RMS(Cart)=    0.0000003033 RMS(Int)=    0.0000019191
 Iter  41:  RMS(Cart)=    0.0000002948 RMS(Int)=    0.0000018699
 Iter  42:  RMS(Cart)=    0.0000002866 RMS(Int)=    0.0000018221
 Iter  43:  RMS(Cart)=    0.0000002786 RMS(Int)=    0.0000017757
 Iter  44:  RMS(Cart)=    0.0000002709 RMS(Int)=    0.0000017307
 Iter  45:  RMS(Cart)=    0.0000002634 RMS(Int)=    0.0000016870
 Iter  46:  RMS(Cart)=    0.0000002561 RMS(Int)=    0.0000016445
 Iter  47:  RMS(Cart)=    0.0000002490 RMS(Int)=    0.0000016033
 Iter  48:  RMS(Cart)=    0.0000002422 RMS(Int)=    0.0000015633
 Iter  49:  RMS(Cart)=    0.0000002355 RMS(Int)=    0.0000015245
 Iter  50:  RMS(Cart)=    0.0000002291 RMS(Int)=    0.0000014867
 Iter  51:  RMS(Cart)=    0.0000002228 RMS(Int)=    0.0000014501
 Iter  52:  RMS(Cart)=    0.0000002167 RMS(Int)=    0.0000014145
 Iter  53:  RMS(Cart)=    0.0000002108 RMS(Int)=    0.0000013799
 Iter  54:  RMS(Cart)=    0.0000002051 RMS(Int)=    0.0000013463
 Iter  55:  RMS(Cart)=    0.0000001996 RMS(Int)=    0.0000013137
 Iter  56:  RMS(Cart)=    0.0000001942 RMS(Int)=    0.0000012820
 Iter  57:  RMS(Cart)=    0.0000001889 RMS(Int)=    0.0000012512
 Iter  58:  RMS(Cart)=    0.0000001839 RMS(Int)=    0.0000012213
 Iter  59:  RMS(Cart)=    0.0000001789 RMS(Int)=    0.0000011922
 Iter  60:  RMS(Cart)=    0.0000001741 RMS(Int)=    0.0000011639
 Iter  61:  RMS(Cart)=    0.0000001695 RMS(Int)=    0.0000011364
 Iter  62:  RMS(Cart)=    0.0000001650 RMS(Int)=    0.0000011097
 Iter  63:  RMS(Cart)=    0.0000001606 RMS(Int)=    0.0000010838
 Iter  64:  RMS(Cart)=    0.0000001563 RMS(Int)=    0.0000010585
 Iter  65:  RMS(Cart)=    0.0000001522 RMS(Int)=    0.0000010340
 Iter  66:  RMS(Cart)=    0.0000001482 RMS(Int)=    0.0000010102
 Iter  67:  RMS(Cart)=    0.0000001443 RMS(Int)=    0.0000009870
CONVERGED
Small eigenvalue found = 7.302e-03
Small eigenvalue found = 1.290e-02
Small eigenvalue found = 1.665e-02
The first mode is                       ....   91
The number of degrees of freedom        ....   81
Storing new coordinates                 .... done

    -----------------------------------------------------------------
                    Redundant Internal Coordinates


    -----------------------------------------------------------------
         Definition                    Initial Value    Approx d2E/dq
    -----------------------------------------------------------------
      1. B(C   1,C   0)                  1.5333         0.369027   
      2. B(C   2,C   1)                  1.5471         0.350825   
      3. B(C   3,C   2)                  1.5492         0.348147   
      4. B(O   4,C   0)                  1.4668         0.422031   
      5. B(O   4,C   3)                  1.4789         0.403699   
      6. B(H   5,C   0)                  1.0919         0.357632   
      7. B(H   6,C   1)                  1.0958         0.352561   
      8. B(H   7,C   1)                  1.0951         0.353431   
      9. B(H   8,C   2)                  1.0945         0.354166   
     10. B(H   9,C   2)                  1.0966         0.351438   
     11. B(H  10,C   3)                  1.0954         0.353010   
     12. B(H  11,C   3)                  1.0939         0.354989   
     13. B(H  13,C  12)                  1.0973         0.350612   
     14. B(H  14,C  12)                  1.0979         0.349844   
     15. B(O  15,C   0)                  1.5525         0.307993   
     16. B(O  15,C  12)                  1.5534         0.307040   
     17. B(C  16,C  12)                  1.5534         0.342865   
     18. B(C  17,C  16)                  1.5325         0.370195   
     19. B(C  18,C  17)                  1.5467         0.351293   
     20. B(C  19,C  18)                  1.5499         0.347224   
     21. B(O  20,C  16)                  1.4665         0.422543   
     22. B(O  20,C  19)                  1.4786         0.404176   
     23. B(H  21,C  16)                  1.0916         0.358024   
     24. B(O  22,C  17)                  1.5536         0.306808   
     25. B(H  23,C  17)                  1.0951         0.353353   
     26. B(H  24,C  18)                  1.0943         0.354397   
     27. B(H  25,C  18)                  1.0962         0.351987   
     28. B(H  26,C  19)                  1.0956         0.352793   
     29. B(H  27,C  19)                  1.0937         0.355203   
     30. B(H  28,O  22)                  1.0965         0.314914   
     31. A(O   4,C   0,H   5)          107.0166         0.328541   
     32. A(C   1,C   0,O  15)          111.3062         0.348740   
     33. A(C   1,C   0,O   4)          104.2509         0.367935   
     34. A(O   4,C   0,O  15)          110.4722         0.354548   
     35. A(C   1,C   0,H   5)          114.4408         0.323302   
     36. A(H   5,C   0,O  15)          109.1540         0.312058   
     37. A(C   0,C   1,C   2)          101.6783         0.358729   
     38. A(C   2,C   1,H   7)          112.8334         0.320016   
     39. A(C   2,C   1,H   6)          110.6701         0.319888   
     40. A(C   0,C   1,H   6)          110.0681         0.322546   
     41. A(H   6,C   1,H   7)          108.3679         0.289027   
     42. A(C   0,C   1,H   7)          113.1246         0.322677   
     43. A(C   1,C   2,H   8)          112.8312         0.320125   
     44. A(C   1,C   2,C   3)          103.1286         0.355196   
     45. A(C   1,C   2,H   9)          110.0795         0.319721   
     46. A(C   3,C   2,H   9)          110.6147         0.319321   
     47. A(C   3,C   2,H   8)          112.4032         0.319725   
     48. A(H   8,C   2,H   9)          107.7731         0.288977   
     49. A(O   4,C   3,H  10)          109.1301         0.325449   
     50. A(C   2,C   3,H  10)          112.5254         0.319554   
     51. A(C   2,C   3,O   4)          106.5267         0.361529   
     52. A(O   4,C   3,H  11)          107.1240         0.325748   
     53. A(H  10,C   3,H  11)          108.8727         0.289284   
     54. A(C   2,C   3,H  11)          112.4569         0.319846   
     55. A(C   0,O   4,C   3)          108.3128         0.371320   
     56. A(H  14,C  12,C  16)          107.7113         0.318289   
     57. A(H  13,C  12,H  14)          108.1851         0.288315   
     58. A(H  13,C  12,O  15)          109.2626         0.310903   
     59. A(H  14,C  12,O  15)          110.4703         0.310793   
     60. A(O  15,C  12,C  16)          112.7539         0.344274   
     61. A(H  13,C  12,C  16)          108.3308         0.318403   
     62. A(C   0,O  15,C  12)          115.1709         0.336101   
     63. A(C  12,C  16,C  17)          111.3032         0.357523   
     64. A(C  12,C  16,O  20)          110.4489         0.363406   
     65. A(C  17,C  16,O  20)          104.2668         0.368211   
     66. A(C  12,C  16,H  21)          109.1077         0.319492   
     67. A(C  17,C  16,H  21)          114.5151         0.323528   
     68. A(O  20,C  16,H  21)          106.9988         0.328666   
     69. A(C  16,C  17,C  18)          101.7213         0.359003   
     70. A(C  16,C  17,O  22)          110.0458         0.348699   
     71. A(C  18,C  17,O  22)          110.6943         0.345637   
     72. A(C  16,C  17,H  23)          113.1283         0.322832   
     73. A(C  18,C  17,H  23)          112.8818         0.320075   
     74. A(O  22,C  17,H  23)          108.2794         0.311257   
     75. A(C  17,C  18,C  19)          103.0791         0.355117   
     76. A(C  17,C  18,H  24)          112.8056         0.320229   
     77. A(C  19,C  18,H  24)          112.4131         0.319620   
     78. A(C  17,C  18,H  25)          110.0559         0.319872   
     79. A(C  19,C  18,H  25)          110.6463         0.319264   
     80. A(H  24,C  18,H  25)          107.8262         0.289077   
     81. A(C  18,C  19,O  20)          106.5256         0.361438   
     82. A(C  18,C  19,H  26)          112.4961         0.319383   
     83. A(O  20,C  19,H  26)          109.1463         0.325479   
     84. A(C  18,C  19,H  27)          112.4342         0.319739   
     85. A(O  20,C  19,H  27)          107.1955         0.325844   
     86. A(H  26,C  19,H  27)          108.8457         0.289283   
     87. A(C  16,O  20,C  19)          108.3174         0.371473   
     88. A(C  17,O  22,H  28)          109.6588         0.303015   
     89. D(H   7,C   1,C   0,H   5)     82.1535         0.010890   
     90. D(C   2,C   1,C   0,O  15)     79.0888         0.010890   
     91. D(H   7,C   1,C   0,O  15)    -42.1859         0.010890   
     92. D(H   6,C   1,C   0,O   4)     77.3245         0.010890   
     93. D(H   6,C   1,C   0,O  15)   -163.5721         0.010890   
     94. D(H   6,C   1,C   0,H   5)    -39.2326         0.010890   
     95. D(H   7,C   1,C   0,O   4)   -161.2893         0.010890   
     96. D(C   2,C   1,C   0,O   4)    -40.0146         0.010890 C 
     97. D(C   2,C   1,C   0,H   5)   -156.5718         0.010890   
     98. D(H   9,C   2,C   1,H   6)    160.0777         0.009912   
     99. D(H   8,C   2,C   1,C   0)    156.5478         0.009912   
    100. D(H   8,C   2,C   1,H   6)     39.6450         0.009912   
    101. D(C   3,C   2,C   1,C   0)     35.0268         0.009912 C 
    102. D(H   8,C   2,C   1,H   7)    -81.9750         0.009912   
    103. D(H   9,C   2,C   1,C   0)    -83.0196         0.009912   
    104. D(C   3,C   2,C   1,H   6)    -81.8760         0.009912   
    105. D(H   9,C   2,C   1,H   7)     38.4577         0.009912   
    106. D(C   3,C   2,C   1,H   7)    156.5040         0.009912   
    107. D(H  11,C   3,C   2,H   9)   -143.4626         0.009774   
    108. D(O   4,C   3,C   2,H   8)   -140.0068         0.009774   
    109. D(O   4,C   3,C   2,H   9)     99.4741         0.009774   
    110. D(H  10,C   3,C   2,C   1)   -137.7431         0.009774   
    111. D(H  10,C   3,C   2,H   8)    100.4467         0.009774   
    112. D(H  10,C   3,C   2,H   9)    -20.0724         0.009774   
    113. D(H  11,C   3,C   2,C   1)     98.8666         0.009774   
    114. D(O   4,C   3,C   2,C   1)    -18.1967         0.009774 C 
    115. D(H  11,C   3,C   2,H   8)    -22.9436         0.009774   
    116. D(C   3,O   4,C   0,C   1)     29.5920         0.014035 C 
    117. D(C   3,O   4,C   0,H   5)    151.2041         0.014035   
    118. D(C   3,O   4,C   0,O  15)    -90.0766         0.014035   
    119. D(C   0,O   4,C   3,C   2)     -6.8730         0.012866 C 
    120. D(C   0,O   4,C   3,H  10)    114.8547         0.012866   
    121. D(C   0,O   4,C   3,H  11)   -127.4270         0.012866   
    122. D(C   0,O  15,C  12,C  16)   -135.0000         0.007751 C 
    123. D(C  12,O  15,C   0,O   4)    -15.0000         0.007793 C 
    124. D(C  12,O  15,C   0,H   5)    102.4100         0.007793   
    125. D(C   0,O  15,C  12,H  14)    104.4231         0.007751   
    126. D(C   0,O  15,C  12,H  13)    -14.4800         0.007751   
    127. D(C  12,O  15,C   0,C   1)   -130.3181         0.007793   
    128. D(C  17,C  16,C  12,H  13)    -56.3497         0.009504   
    129. D(H  21,C  16,C  12,H  14)     59.5152         0.009504   
    130. D(C  17,C  16,C  12,O  15)     64.7026         0.009504   
    131. D(O  20,C  16,C  12,H  13)     58.9719         0.009504   
    132. D(O  20,C  16,C  12,H  14)    -57.8319         0.009504   
    133. D(O  20,C  16,C  12,O  15)   -179.9758         0.009504 C 
    134. D(C  17,C  16,C  12,H  14)   -173.1535         0.009504   
    135. D(H  21,C  16,C  12,H  13)    176.3190         0.009504   
    136. D(H  21,C  16,C  12,O  15)    -62.6287         0.009504   
    137. D(C  18,C  17,C  16,C  12)     79.0726         0.010955   
    138. D(C  18,C  17,C  16,O  20)    -40.0108         0.010955 C 
    139. D(C  18,C  17,C  16,H  21)   -156.5947         0.010955   
    140. D(O  22,C  17,C  16,C  12)   -163.5477         0.010955   
    141. D(O  22,C  17,C  16,O  20)     77.3688         0.010955   
    142. D(O  22,C  17,C  16,H  21)    -39.2150         0.010955   
    143. D(H  23,C  17,C  16,C  12)    -42.2890         0.010955   
    144. D(H  23,C  17,C  16,O  20)   -161.3724         0.010955   
    145. D(H  23,C  17,C  16,H  21)     82.0437         0.010955   
    146. D(H  24,C  18,C  17,H  23)    -81.9512         0.009937   
    147. D(C  19,C  18,C  17,O  22)    -81.8819         0.009937   
    148. D(C  19,C  18,C  17,H  23)    156.5609         0.009937   
    149. D(H  24,C  18,C  17,C  16)    156.5161         0.009937   
    150. D(C  19,C  18,C  17,C  16)     35.0282         0.009937 C 
    151. D(H  24,C  18,C  17,O  22)     39.6060         0.009937   
    152. D(H  25,C  18,C  17,C  16)    -83.0173         0.009937   
    153. D(H  25,C  18,C  17,O  22)    160.0726         0.009937   
    154. D(H  25,C  18,C  17,H  23)     38.5154         0.009937   
    155. D(H  27,C  19,C  18,H  25)   -143.4462         0.009726   
    156. D(O  20,C  19,C  18,H  24)   -139.9671         0.009726   
    157. D(O  20,C  19,C  18,H  25)     99.4170         0.009726   
    158. D(H  26,C  19,C  18,C  17)   -137.7625         0.009726   
    159. D(H  26,C  19,C  18,H  24)    100.4842         0.009726   
    160. D(H  26,C  19,C  18,H  25)    -20.1317         0.009726   
    161. D(H  27,C  19,C  18,C  17)     98.9231         0.009726   
    162. D(O  20,C  19,C  18,C  17)    -18.2138         0.009726 C 
    163. D(H  27,C  19,C  18,H  24)    -22.8303         0.009726   
    164. D(C  19,O  20,C  16,C  12)    -90.1109         0.014069   
    165. D(C  19,O  20,C  16,C  17)     29.5514         0.014069 C 
    166. D(C  19,O  20,C  16,H  21)    151.2488         0.014069   
    167. D(C  16,O  20,C  19,C  18)     -6.8278         0.012895 C 
    168. D(C  16,O  20,C  19,H  26)    114.8732         0.012895   
    169. D(C  16,O  20,C  19,H  27)   -127.3923         0.012895   
    170. D(H  28,O  22,C  17,C  16)    -55.8263         0.007741   
    171. D(H  28,O  22,C  17,C  18)     55.8277         0.007741   
    172. D(H  28,O  22,C  17,H  23)   -179.9422         0.007741   
    -----------------------------------------------------------------

Number of atoms                         .... 29
Number of degrees of freedom            .... 172

Time needed for optimization step       :    13.56 sec

         *************************************************************
         *                GEOMETRY OPTIMIZATION CYCLE   1            *
         *************************************************************
---------------------------------
CARTESIAN COORDINATES (ANGSTROEM)
---------------------------------
  C    -21.047772   26.222015   46.250946
  C    -20.360937   27.558104   45.944014
  C    -20.329141   28.222072   47.341023
  C    -20.110052   27.022100   48.296040
  O    -20.472826   25.807049   47.534989
  H    -20.832607   25.428019   45.532991
  H    -19.343880   27.382253   45.576101
  H    -20.897955   28.157035   45.200972
  H    -19.543251   28.978178   47.434097
  H    -21.289226   28.709935   47.547950
  H    -20.733135   27.082009   49.194989
  H    -19.064063   26.913242   48.597128
  C    -23.220770   25.763812   47.644883
  H    -22.498715   25.080873   48.109888
  H    -23.473785   26.543833   48.374855
  O    -22.585815   26.393725   46.374817
  C    -24.517910   24.966990   47.336012
  C    -24.226135   23.748938   46.453003
  C    -23.668164   22.739877   47.483964
  C    -24.491017   23.050999   48.760028
  O    -25.073867   24.396064   48.567063
  H    -25.268856   25.649074   46.933055
  O    -25.544256   23.219095   45.824123
  H    -23.521177   23.963840   45.642940
  H    -23.776319   21.699887   47.160987
  H    -22.602125   22.928748   47.655869
  H    -23.874940   23.052936   49.665976
  H    -25.323091   22.355103   48.900108
  H    -26.268215   22.997195   46.617188

----------------------------
CARTESIAN COORDINATES (A.U.)
----------------------------
  NO LB      ZA    FRAG     MASS         X           Y           Z
   0 C     6.0000    0    12.011  -39.774524   49.552428   87.401622
   1 C     6.0000    0    12.011  -38.476595   52.077269   86.821604
   2 C     6.0000    0    12.011  -38.416509   53.331986   89.461569
   3 C     6.0000    0    12.011  -38.002491   51.064368   91.266289
   4 O     8.0000    0    15.999  -38.688034   48.768254   89.828112
   5 H     1.0000    0     1.008  -39.367922   48.051993   86.044883
   6 H     1.0000    0     1.008  -36.554635   51.744959   86.126349
   7 H     1.0000    0     1.008  -39.491413   53.209085   85.417458
   8 H     1.0000    0     1.008  -36.931393   54.760820   89.637452
   9 H     1.0000    0     1.008  -40.230807   54.253914   89.852604
  10 H     1.0000    0     1.008  -39.179947   51.177580   92.965056
  11 H     1.0000    0     1.008  -36.025857   50.858657   91.835262
  12 C     6.0000    0    12.011  -43.880895   48.686549   90.035780
  13 H     1.0000    0     1.008  -42.516409   47.395982   90.914512
  14 H     1.0000    0     1.008  -44.359025   50.160575   91.415228
  15 O     8.0000    0    15.999  -42.681004   49.876912   87.635704
  16 C     6.0000    0    12.011  -46.332135   47.180774   89.452100
  17 C     6.0000    0    12.011  -45.780760   44.878988   87.783453
  18 C     6.0000    0    12.011  -44.726347   42.972141   89.731688
  19 C     6.0000    0    12.011  -46.281315   43.560075   92.143100
  20 O     8.0000    0    15.999  -47.382742   46.101879   91.778448
  21 H     1.0000    0     1.008  -47.751218   48.469726   88.690621
  22 O     8.0000    0    15.999  -48.271647   43.877731   86.595043
  23 H     1.0000    0     1.008  -44.448583   45.285095   86.252657
  24 H     1.0000    0     1.008  -44.930731   41.006843   89.121349
  25 H     1.0000    0     1.008  -42.711827   43.329054   90.056541
  26 H     1.0000    0     1.008  -45.117098   43.563735   93.855093
  27 H     1.0000    0     1.008  -47.853707   42.245023   92.407812
  28 H     1.0000    0     1.008  -49.639731   43.458400   88.093719

--------------------------------
INTERNAL COORDINATES (ANGSTROEM)
--------------------------------
 C      0   0   0     0.000000000000     0.00000000     0.00000000
 C      1   0   0     1.533334275362     0.00000000     0.00000000
 C      2   1   0     1.547103422529   101.67907390     0.00000000
 C      3   2   1     1.549188819996   103.12737509    35.02687180
 O      1   2   3     1.466801281701   104.24948604   319.98542309
 H      1   2   3     1.091872245274   114.43876658   203.42640133
 H      2   1   3     1.095759553917   110.06782188   117.34000099
 H      2   1   3     1.095088580892   113.12442239   238.72597460
 H      3   2   1     1.094523183857   112.83161078   156.54780790
 H      3   2   1     1.096628013503   110.07982737   276.98070077
 H      4   3   2     1.095413164062   112.52534669   222.25678475
 H      4   3   2     1.093891219455   112.45670684    98.86663270
 C      1   2   3     2.622008581222   129.04709754    47.32982269
 H     13   1   2     1.097268426594    77.80222942   232.17793006
 H     13   1   2     1.097865656627   114.85940549   336.75878649
 O      1   2   3     1.552547583812   111.30349807    79.08752829
 C     13   1   2     1.553350894035   132.52003893   128.40262071
 C     17  13   1     1.532474143338   111.30414158    33.74780866
 C     18  17  13     1.546740443643   101.72098825    79.07315852
 C     19  18  17     1.549911610383   103.07961745    35.02814563
 O     17  13   1     1.466471274864   110.44863983   149.07057302
 H     17  13   1     1.091574092767   109.10679867   266.41575915
 O     18  17  13     1.553597438206   110.04592648   196.45254073
 H     18  17  13     1.095148391772   113.12842877   317.71133958
 H     19  18  17     1.094345923372   112.80541025   156.51609796
 H     19  18  17     1.096202992151   110.05573649   276.98258401
 H     20  19  18     1.095580211577   112.49610843   222.23756102
 H     20  19  18     1.093727571199   112.43424830    98.92303609
 H     23  18  17     1.096498518011   109.65882891   304.17384466

---------------------------
INTERNAL COORDINATES (A.U.)
---------------------------
 C      0   0   0     0.000000000000     0.00000000     0.00000000
 C      1   0   0     2.897581852189     0.00000000     0.00000000
 C      2   1   0     2.923601769431   101.67907390     0.00000000
 C      3   2   1     2.927542599525   103.12737509    35.02687180
 O      1   2   3     2.771852715300   104.24948604   319.98542309
 H      1   2   3     2.063339516798   114.43876658   203.42640133
 H      2   1   3     2.070685465531   110.06782188   117.34000099
 H      2   1   3     2.069417510270   113.12442239   238.72597460
 H      3   2   1     2.068349064717   112.83161078   156.54780790
 H      3   2   1     2.072326616307   110.07982737   276.98070077
 H      4   3   2     2.070030883569   112.52534669   222.25678475
 H      4   3   2     2.067154825070   112.45670684    98.86663270
 C      1   2   3     4.954878139300   129.04709754    47.32982269
 H     13   1   2     2.073536821661    77.80222942   232.17793006
 H     13   1   2     2.074665422862   114.85940549   336.75878649
 O      1   2   3     2.933889743286   111.30349807    79.08752829
 C     13   1   2     2.935407779608   132.52003893   128.40262071
 C     17  13   1     2.895956438225   111.30414158    33.74780866
 C     18  17  13     2.922915838745   101.72098825    79.07315852
 C     19  18  17     2.928908475409   103.07961745    35.02814563
 O     17  13   1     2.771229092755   110.44863983   149.07057302
 H     17  13   1     2.062776090213   109.10679867   266.41575915
 O     18  17  13     2.935873680571   110.04592648   196.45254073
 H     18  17  13     2.069530536453   113.12842877   317.71133958
 H     19  18  17     2.068014090945   112.80541025   156.51609796
 H     19  18  17     2.071523442350   110.05573649   276.98258401
 H     20  19  18     2.070346557625   112.49610843   222.23756102
 H     20  19  18     2.066845574684   112.43424830    98.92303609
 H     23  18  17     2.072081905291   109.65882891   304.17384466

---------------------
BASIS SET INFORMATION
---------------------
There are 3 groups of distinct atoms

 Group   1 Type C   : 10s4p contracted to 3s2p pattern {631/31}
 Group   2 Type O   : 10s4p contracted to 3s2p pattern {631/31}
 Group   3 Type H   : 4s contracted to 2s pattern {31}

Atom   0C    basis set group =>   1
Atom   1C    basis set group =>   1
Atom   2C    basis set group =>   1
Atom   3C    basis set group =>   1
Atom   4O    basis set group =>   2
Atom   5H    basis set group =>   3
Atom   6H    basis set group =>   3
Atom   7H    basis set group =>   3
Atom   8H    basis set group =>   3
Atom   9H    basis set group =>   3
Atom  10H    basis set group =>   3
Atom  11H    basis set group =>   3
Atom  12C    basis set group =>   1
Atom  13H    basis set group =>   3
Atom  14H    basis set group =>   3
Atom  15O    basis set group =>   2
Atom  16C    basis set group =>   1
Atom  17C    basis set group =>   1
Atom  18C    basis set group =>   1
Atom  19C    basis set group =>   1
Atom  20O    basis set group =>   2
Atom  21H    basis set group =>   3
Atom  22O    basis set group =>   2
Atom  23H    basis set group =>   3
Atom  24H    basis set group =>   3
Atom  25H    basis set group =>   3
Atom  26H    basis set group =>   3
Atom  27H    basis set group =>   3
Atom  28H    basis set group =>   3
------------------------------------------------------------------------------
                           ORCA GTO INTEGRAL CALCULATION
------------------------------------------------------------------------------

                         BASIS SET STATISTICS AND STARTUP INFO

 # of primitive gaussian shells          ...  246
 # of primitive gaussian functions       ...  350
 # of contracted shells                  ...   97
 # of contracted basis functions         ...  149
 Highest angular momentum                ...    1
 Maximum contraction depth               ...    6
 Integral package used                   ... LIBINT
 Integral threshhold            Thresh   ...  2.500e-11
 Primitive cut-off              TCut     ...  2.500e-12


------------------------------ INTEGRAL EVALUATION ----------------------------


 * One electron integrals 
 Pre-screening matrix                    ... done
 Shell pair data                         ... done (   0.002 sec)

-------------------------------------------------------------------------------
                                 ORCA SCF
-------------------------------------------------------------------------------

------------
SCF SETTINGS
------------
Hamiltonian:
 Density Functional     Method          .... DFT(GTOs)
 Exchange Functional    Exchange        .... B88
   X-Alpha parameter    XAlpha          ....  0.666667
   Becke's b parameter  XBeta           ....  0.004200
 Correlation Functional Correlation     .... LYP
 LDA part of GGA corr.  LDAOpt          .... VWN-5
 Gradients option       PostSCFGGA      .... off
 Hybrid DFT is turned on
   Fraction HF Exchange ScalHFX         ....  0.200000
   Scaling of DF-GGA-X  ScalDFX         ....  0.720000
   Scaling of DF-GGA-C  ScalDFC         ....  0.810000
   Scaling of DF-LDA-C  ScalLDAC        ....  1.000000
   Perturbative correction              ....  0.000000
   Density functional embedding theory  .... OFF
   NL short-range parameter             ....  4.800000


General Settings:
 Integral files         IntName         .... project_8050/ensemble_345_225
 Hartree-Fock type      HFTyp           .... RHF
 Total Charge           Charge          ....    0
 Multiplicity           Mult            ....    1
 Number of Electrons    NEL             ....  102
 Basis Dimension        Dim             ....  149
 Nuclear Repulsion      ENuc            ....    866.4943603363 Eh

Convergence Acceleration:
 DIIS                   CNVDIIS         .... on
   Start iteration      DIISMaxIt       ....    12
   Startup error        DIISStart       ....  0.200000
   # of expansion vecs  DIISMaxEq       ....     5
   Bias factor          DIISBfac        ....   1.050
   Max. coefficient     DIISMaxC        ....  10.000
 Newton-Raphson         CNVNR           .... off
 SOSCF                  CNVSOSCF        .... on
   Start iteration      SOSCFMaxIt      ....   150
   Startup grad/error   SOSCFStart      ....  0.003300
 Level Shifting         CNVShift        .... on
   Level shift para.    LevelShift      ....    0.2500
   Turn off err/grad.   ShiftErr        ....    0.0010
 Zerner damping         CNVZerner       .... off
 Static damping         CNVDamp         .... on
   Fraction old density DampFac         ....    0.7000
   Max. Damping (<1)    DampMax         ....    0.9800
   Min. Damping (>=0)   DampMin         ....    0.0000
   Turn off err/grad.   DampErr         ....    0.1000
 Fernandez-Rico         CNVRico         .... off

SCF Procedure:
 Maximum # iterations   MaxIter         ....   125
 SCF integral mode      SCFMode         .... Direct
   Integral package                     .... LIBINT
 Reset frequency        DirectResetFreq ....    20
 Integral Threshold     Thresh          ....  2.500e-11 Eh
 Primitive CutOff       TCut            ....  2.500e-12 Eh

Convergence Tolerance:
 Convergence Check Mode ConvCheckMode   .... Total+1el-Energy
 Convergence forced     ConvForced      .... 0
 Energy Change          TolE            ....  1.000e-08 Eh
 1-El. energy change                    ....  1.000e-05 Eh
 Orbital Gradient       TolG            ....  1.000e-05
 Orbital Rotation angle TolX            ....  1.000e-05
 DIIS Error             TolErr          ....  5.000e-07


Diagonalization of the overlap matrix:
Smallest eigenvalue                        ... 4.252e-03
Time for diagonalization                   ...    0.006 sec
Threshold for overlap eigenvalues          ... 1.000e-08
Number of eigenvalues below threshold      ... 0
Time for construction of square roots      ...    4.890 sec
Total time needed                          ...    5.012 sec

-------------------
DFT GRID GENERATION
-------------------

General Integration Accuracy     IntAcc      ...  4.340
Radial Grid Type                 RadialGrid  ... Gauss-Chebyshev
Angular Grid (max. acc.)         AngularGrid ... Lebedev-110
Angular grid pruning method      GridPruning ... 3 (G Style)
Weight generation scheme         WeightScheme... Becke
Basis function cutoff            BFCut       ...    1.0000e-11
Integration weight cutoff        WCut        ...    1.0000e-14
Grids for H and He will be reduced by one unit

# of grid points (after initial pruning)     ...  34472 (   0.0 sec)
# of grid points (after weights+screening)   ...  30996 (   0.2 sec)
nearest neighbour list constructed           ...    0.0 sec
Grid point re-assignment to atoms done       ...    0.0 sec
Grid point division into batches done        ...    0.0 sec
Reduced shell lists constructed in    0.3 sec

Total number of grid points                  ...    30996
Total number of batches                      ...      497
Average number of points per batch           ...       62
Average number of grid points per atom       ...     1069
Average number of shells per batch           ...    58.70 (60.51%)
Average number of basis functions per batch  ...    95.23 (63.91%)
Average number of large shells per batch     ...    41.21 (70.21%)
Average number of large basis fcns per batch ...    68.10 (71.51%)
Maximum spatial batch extension              ...  19.44, 21.56, 19.50 au
Average spatial batch extension              ...   3.27,  3.38,  3.35 au

Time for grid setup =    3.985 sec

------------------------------
INITIAL GUESS: MODEL POTENTIAL
------------------------------
Loading Hartree-Fock densities                     ... done
Calculating cut-offs                               ... done
Setting up the integral package                    ... done
Initializing the effective Hamiltonian             ... done
Starting the Coulomb interaction                   ... done (   0.3 sec)
Reading the grid                                   ... done
Mapping shells                                     ... done
Starting the XC term evaluation                    ... done (   0.3 sec)
  promolecular density results
     # of electrons  =    101.996972941
     EX              =    -83.664369387
     EC              =     -3.458121518
     EX+EC           =    -87.122490905
Transforming the Hamiltonian                       ... done (   1.7 sec)
Diagonalizing the Hamiltonian                      ... done (   0.0 sec)
Back transforming the eigenvectors                 ... done (   0.0 sec)
Now organizing SCF variables                       ... done
                      ------------------
                      INITIAL GUESS DONE (  13.7 sec)
                      ------------------
--------------
SCF ITERATIONS
--------------
ITER       Energy         Delta-E        Max-DP      RMS-DP      [F,P]     Damp
               ***  Starting incremental Fock matrix formation  ***
  0   -652.5476639069   0.000000000000 0.07894644  0.00293698  0.2385800 0.7000
  1   -652.6839492206  -0.136285313657 0.04559622  0.00201377  0.0946602 0.7000
                               ***Turning on DIIS***
  2   -652.7356526375  -0.051703416879 0.05275504  0.00326234  0.0295244 0.0000
  3   -652.8203817451  -0.084729107645 0.03204395  0.00132365  0.0515625 0.0000
  4   -652.8374945504  -0.017112805264 0.00810158  0.00041867  0.0090273 0.0000
  5   -652.8384169472  -0.000922396841 0.00285067  0.00012857  0.0042213 0.0000
                      *** Initiating the SOSCF procedure ***
                           *** Shutting down DIIS ***
                      *** Re-Reading the Fockian *** 
                      *** Removing any level shift *** 
ITER      Energy       Delta-E        Grad      Rot      Max-DP    RMS-DP
  6   -652.83848901  -0.0000720597  0.000180  0.000180  0.000904  0.000053
               *** Restarting incremental Fock matrix formation ***
  7   -652.83849185  -0.0000028413  0.000128  0.000257  0.000984  0.000030
  8   -652.83849009   0.0000017548  0.000220  0.000193  0.000624  0.000019
  9   -652.83849304  -0.0000029442  0.000026  0.000057  0.000216  0.000007
 10   -652.83849296   0.0000000748  0.000041  0.000032  0.000138  0.000004
 11   -652.83849310  -0.0000001385  0.000007  0.000006  0.000035  0.000001
 12   -652.83849310   0.0000000012  0.000010  0.000004  0.000021  0.000001
                  ***Gradient check signals convergence***
              ***Rediagonalizing the Fockian in SOSCF/NRSCF***

               *****************************************************
               *                     SUCCESS                       *
               *           SCF CONVERGED AFTER  13 CYCLES          *
               *****************************************************

Setting up the final grid:

General Integration Accuracy     IntAcc      ...  4.670
Radial Grid Type                 RadialGrid  ... Gauss-Chebyshev
Angular Grid (max. acc.)         AngularGrid ... Lebedev-302
Angular grid pruning method      GridPruning ... 3 (G Style)
Weight generation scheme         WeightScheme... Becke
Basis function cutoff            BFCut       ...    1.0000e-11
Integration weight cutoff        WCut        ...    1.0000e-14
Grids for H and He will be reduced by one unit

# of grid points (after initial pruning)     ... 135060 (   0.1 sec)
# of grid points (after weights+screening)   ... 118894 (   0.9 sec)
nearest neighbour list constructed           ...    0.0 sec
Grid point re-assignment to atoms done       ...    0.0 sec
Grid point division into batches done        ...    0.5 sec
Reduced shell lists constructed in    1.6 sec

Total number of grid points                  ...   118894
Total number of batches                      ...     1874
Average number of points per batch           ...       63
Average number of grid points per atom       ...     4100
Average number of shells per batch           ...    53.55 (55.21%)
Average number of basis functions per batch  ...    87.18 (58.51%)
Average number of large shells per batch     ...    36.88 (68.88%)
Average number of large basis fcns per batch ...    61.14 (70.13%)
Maximum spatial batch extension              ...  20.41, 18.40, 18.49 au
Average spatial batch extension              ...   2.17,  2.23,  2.25 au

Final grid set up in    4.5 sec
Final integration                            ... done (  20.9 sec)
Change in XC energy                          ...     0.000522140
Integrated number of electrons               ...   102.000220730
Previous integrated no of electrons          ...   102.004217994

----------------
TOTAL SCF ENERGY
----------------

Total Energy       :         -652.83797096 Eh          -17764.62433 eV

Components:
Nuclear Repulsion  :          866.49436034 Eh           23578.51025 eV
Electronic Energy  :        -1519.33233130 Eh          -41343.13458 eV
One Electron Energy:        -2610.85776762 Eh          -71045.05172 eV
Two Electron Energy:         1091.52543632 Eh           29701.91714 eV

Virial components:
Potential Energy   :        -1301.76751944 Eh          -35422.89507 eV
Kinetic Energy     :          648.92954848 Eh           17658.27074 eV
Virial Ratio       :            2.00602288


DFT components:
N(Alpha)           :       51.000110365132 electrons
N(Beta)            :       51.000110365132 electrons
N(Total)           :      102.000220730265 electrons
E(X)               :      -67.593226459712 Eh       
E(C)               :       -4.069879579474 Eh       
E(XC)              :      -71.663106039186 Eh       
DFET-embed. en.    :        0.000000000000 Eh       

---------------
SCF CONVERGENCE
---------------

  Last Energy change         ...   -2.6373e-09  Tolerance :   1.0000e-08
  Last MAX-Density change    ...    2.7912e-06  Tolerance :   1.0000e-07
  Last RMS-Density change    ...    1.1030e-07  Tolerance :   5.0000e-09
  Last Orbital Gradient      ...    3.4554e-07  Tolerance :   1.0000e-05
  Last Orbital Rotation      ...    5.5511e-07  Tolerance :   1.0000e-05

             **** THE GBW FILE WAS UPDATED (project_8050/ensemble_345_225.gbw) ****
             **** DENSITY FILE WAS UPDATED (project_8050/ensemble_345_225.scfp) ****
             **** ENERGY FILE WAS UPDATED (project_8050/ensemble_345_225.en.tmp) ****
             **** THE GBW FILE WAS UPDATED (project_8050/ensemble_345_225.gbw) ****
             **** DENSITY FILE WAS UPDATED (project_8050/ensemble_345_225.scfp) ****
----------------
ORBITAL ENERGIES
----------------

  NO   OCC          E(Eh)            E(eV) 
   0   2.0000     -19.158962      -521.3419 
   1   2.0000     -19.144200      -520.9402 
   2   2.0000     -19.143603      -520.9239 
   3   2.0000     -19.136843      -520.7400 
   4   2.0000     -10.289019      -279.9785 
   5   2.0000     -10.237003      -278.5630 
   6   2.0000     -10.235668      -278.5267 
   7   2.0000     -10.231148      -278.4037 
   8   2.0000     -10.230692      -278.3913 
   9   2.0000     -10.224995      -278.2363 
  10   2.0000     -10.195110      -277.4230 
  11   2.0000     -10.193612      -277.3823 
  12   2.0000     -10.188532      -277.2440 
  13   2.0000      -1.045879       -28.4598 
  14   2.0000      -1.028509       -27.9872 
  15   2.0000      -0.960659       -26.1409 
  16   2.0000      -0.956029       -26.0149 
  17   2.0000      -0.794473       -21.6187 
  18   2.0000      -0.777941       -21.1688 
  19   2.0000      -0.761504       -20.7216 
  20   2.0000      -0.735669       -20.0186 
  21   2.0000      -0.665758       -18.1162 
  22   2.0000      -0.605668       -16.4811 
  23   2.0000      -0.596480       -16.2311 
  24   2.0000      -0.592140       -16.1129 
  25   2.0000      -0.570421       -15.5220 
  26   2.0000      -0.511601       -13.9214 
  27   2.0000      -0.507565       -13.8115 
  28   2.0000      -0.496665       -13.5149 
  29   2.0000      -0.488059       -13.2808 
  30   2.0000      -0.460277       -12.5248 
  31   2.0000      -0.453173       -12.3315 
  32   2.0000      -0.443486       -12.0679 
  33   2.0000      -0.422743       -11.5034 
  34   2.0000      -0.414646       -11.2831 
  35   2.0000      -0.411765       -11.2047 
  36   2.0000      -0.405178       -11.0255 
  37   2.0000      -0.382918       -10.4197 
  38   2.0000      -0.375790       -10.2258 
  39   2.0000      -0.364394        -9.9157 
  40   2.0000      -0.362432        -9.8623 
  41   2.0000      -0.358737        -9.7617 
  42   2.0000      -0.351843        -9.5741 
  43   2.0000      -0.337172        -9.1749 
  44   2.0000      -0.319861        -8.7038 
  45   2.0000      -0.307111        -8.3569 
  46   2.0000      -0.300005        -8.1635 
  47   2.0000      -0.267901        -7.2900 
  48   2.0000      -0.265051        -7.2124 
  49   2.0000      -0.257109        -6.9963 
  50   2.0000      -0.238400        -6.4872 
  51   0.0000       0.041978         1.1423 
  52   0.0000       0.060445         1.6448 
  53   0.0000       0.074073         2.0156 
  54   0.0000       0.094734         2.5778 
  55   0.0000       0.097447         2.6517 
  56   0.0000       0.101259         2.7554 
  57   0.0000       0.109083         2.9683 
  58   0.0000       0.126596         3.4449 
  59   0.0000       0.131788         3.5861 
  60   0.0000       0.137589         3.7440 
  61   0.0000       0.144495         3.9319 
  62   0.0000       0.150397         4.0925 
  63   0.0000       0.154125         4.1939 
  64   0.0000       0.157068         4.2740 
  65   0.0000       0.162489         4.4216 
  66   0.0000       0.169832         4.6214 
  67   0.0000       0.184942         5.0325 
  68   0.0000       0.191409         5.2085 
  69   0.0000       0.199901         5.4396 
  70   0.0000       0.207339         5.6420 
  71   0.0000       0.210770         5.7353 
  72   0.0000       0.215348         5.8599 
  73   0.0000       0.221363         6.0236 
  74   0.0000       0.234773         6.3885 
  75   0.0000       0.254238         6.9182 
  76   0.0000       0.254889         6.9359 
  77   0.0000       0.269135         7.3235 
  78   0.0000       0.280221         7.6252 
  79   0.0000       0.280691         7.6380 
  80   0.0000       0.303215         8.2509 
  81   0.0000       0.516464        14.0537 
  82   0.0000       0.523263        14.2387 
  83   0.0000       0.541474        14.7342 
  84   0.0000       0.542616        14.7653 
  85   0.0000       0.554271        15.0825 
  86   0.0000       0.565458        15.3869 
  87   0.0000       0.577776        15.7221 
  88   0.0000       0.583562        15.8795 
  89   0.0000       0.590824        16.0771 
  90   0.0000       0.596387        16.2285 
  91   0.0000       0.603369        16.4185 
  92   0.0000       0.626218        17.0402 
  93   0.0000       0.629965        17.1422 
  94   0.0000       0.635771        17.3002 
  95   0.0000       0.644292        17.5321 
  96   0.0000       0.658285        17.9129 
  97   0.0000       0.673053        18.3147 
  98   0.0000       0.683658        18.6033 
  99   0.0000       0.706381        19.2216 
 100   0.0000       0.727574        19.7983 
 101   0.0000       0.773966        21.0607 
 102   0.0000       0.781829        21.2746 
 103   0.0000       0.794993        21.6329 
 104   0.0000       0.818695        22.2778 
 105   0.0000       0.823053        22.3964 
 106   0.0000       0.831215        22.6185 
 107   0.0000       0.857988        23.3470 
 108   0.0000       0.863252        23.4903 
 109   0.0000       0.870098        23.6766 
 110   0.0000       0.877496        23.8779 
 111   0.0000       0.889510        24.2048 
 112   0.0000       0.896381        24.3918 
 113   0.0000       0.915243        24.9050 
 114   0.0000       0.921127        25.0652 
 115   0.0000       0.934398        25.4263 
 116   0.0000       0.936068        25.4717 
 117   0.0000       0.945939        25.7403 
 118   0.0000       0.950930        25.8761 
 119   0.0000       0.972208        26.4551 
 120   0.0000       0.983173        26.7535 
 121   0.0000       0.989651        26.9298 
 122   0.0000       0.991546        26.9814 
 123   0.0000       1.003571        27.3085 
 124   0.0000       1.038665        28.2635 
 125   0.0000       1.049422        28.5562 
 126   0.0000       1.081031        29.4163 
 127   0.0000       1.085016        29.5248 
 128   0.0000       1.105084        30.0709 
 129   0.0000       1.135805        30.9068 
 130   0.0000       1.161005        31.5926 
 131   0.0000       1.241529        33.7837 
 132   0.0000       1.253636        34.1132 
 133   0.0000       1.312356        35.7110 
 134   0.0000       1.325600        36.0714 
 135   0.0000       1.342244        36.5243 
 136   0.0000       1.353228        36.8232 
 137   0.0000       1.388986        37.7962 
 138   0.0000       1.425241        38.7828 
 139   0.0000       1.476122        40.1673 
 140   0.0000       1.509905        41.0866 
 141   0.0000       1.539459        41.8908 
 142   0.0000       1.627409        44.2841 
 143   0.0000       1.684867        45.8476 
 144   0.0000       1.715386        46.6780 
 145   0.0000       1.866312        50.7849 
 146   0.0000       1.883691        51.2578 
 147   0.0000       2.059910        56.0530 
 148   0.0000       2.088945        56.8431 

                    ********************************
                    * MULLIKEN POPULATION ANALYSIS *
                    ********************************

-----------------------
MULLIKEN ATOMIC CHARGES
-----------------------
   0 C :    0.288028
   1 C :   -0.265018
   2 C :   -0.301596
   3 C :   -0.010756
   4 O :   -0.514599
   5 H :    0.157106
   6 H :    0.150213
   7 H :    0.166327
   8 H :    0.145985
   9 H :    0.164218
  10 H :    0.147629
  11 H :    0.148041
  12 C :   -0.038489
  13 H :    0.166197
  14 H :    0.144425
  15 O :   -0.532930
  16 C :    0.069180
  17 C :    0.083940
  18 C :   -0.320572
  19 C :   -0.029521
  20 O :   -0.522022
  21 H :    0.172011
  22 O :   -0.598548
  23 H :    0.169299
  24 H :    0.162270
  25 H :    0.162416
  26 H :    0.146713
  27 H :    0.144820
  28 H :    0.345231
Sum of atomic charges:   -0.0000000

--------------------------------
MULLIKEN REDUCED ORBITAL CHARGES
--------------------------------
  0 C s       :     3.232457  s :     3.232457
      pz      :     0.783143  p :     2.479514
      px      :     0.690869
      py      :     1.005502
  1 C s       :     3.307972  s :     3.307972
      pz      :     0.984007  p :     2.957047
      px      :     1.029016
      py      :     0.944024
  2 C s       :     3.316762  s :     3.316762
      pz      :     0.907912  p :     2.984834
      px      :     1.089887
      py      :     0.987035
  3 C s       :     3.263666  s :     3.263666
      pz      :     0.939198  p :     2.747089
      px      :     1.063718
      py      :     0.744173
  4 O s       :     3.942019  s :     3.942019
      pz      :     1.318634  p :     4.572580
      px      :     1.733317
      py      :     1.520629
  5 H s       :     0.842894  s :     0.842894
  6 H s       :     0.849787  s :     0.849787
  7 H s       :     0.833673  s :     0.833673
  8 H s       :     0.854015  s :     0.854015
  9 H s       :     0.835782  s :     0.835782
 10 H s       :     0.852371  s :     0.852371
 11 H s       :     0.851959  s :     0.851959
 12 C s       :     3.293748  s :     3.293748
      pz      :     0.811920  p :     2.744741
      px      :     0.933129
      py      :     0.999692
 13 H s       :     0.833803  s :     0.833803
 14 H s       :     0.855575  s :     0.855575
 15 O s       :     3.952370  s :     3.952370
      pz      :     1.512406  p :     4.580560
      px      :     1.282969
      py      :     1.785186
 16 C s       :     3.273201  s :     3.273201
      pz      :     0.742476  p :     2.657618
      px      :     0.981810
      py      :     0.933333
 17 C s       :     3.297117  s :     3.297117
      pz      :     0.942674  p :     2.618943
      px      :     0.791534
      py      :     0.884735
 18 C s       :     3.320511  s :     3.320511
      pz      :     0.924317  p :     3.000060
      px      :     1.021606
      py      :     1.054137
 19 C s       :     3.267510  s :     3.267510
      pz      :     1.014661  p :     2.762011
      px      :     1.003505
      py      :     0.743845
 20 O s       :     3.945918  s :     3.945918
      pz      :     1.508947  p :     4.576104
      px      :     1.719303
      py      :     1.347855
 21 H s       :     0.827989  s :     0.827989
 22 O s       :     3.951820  s :     3.951820
      pz      :     1.513884  p :     4.646728
      px      :     1.282134
      py      :     1.850710
 23 H s       :     0.830701  s :     0.830701
 24 H s       :     0.837730  s :     0.837730
 25 H s       :     0.837584  s :     0.837584
 26 H s       :     0.853287  s :     0.853287
 27 H s       :     0.855180  s :     0.855180
 28 H s       :     0.654769  s :     0.654769


                     *******************************
                     * LOEWDIN POPULATION ANALYSIS *
                     *******************************

----------------------
LOEWDIN ATOMIC CHARGES
----------------------
   0 C :    0.188948
   1 C :   -0.217382
   2 C :   -0.217279
   3 C :   -0.031801
   4 O :   -0.317760
   5 H :    0.107016
   6 H :    0.117492
   7 H :    0.129547
   8 H :    0.116267
   9 H :    0.119664
  10 H :    0.104381
  11 H :    0.105480
  12 C :   -0.052680
  13 H :    0.114224
  14 H :    0.106672
  15 O :   -0.374485
  16 C :    0.023015
  17 C :    0.045082
  18 C :   -0.242371
  19 C :   -0.039668
  20 O :   -0.324658
  21 H :    0.122133
  22 O :   -0.444014
  23 H :    0.127959
  24 H :    0.126444
  25 H :    0.120086
  26 H :    0.103826
  27 H :    0.101159
  28 H :    0.282702

-------------------------------
LOEWDIN REDUCED ORBITAL CHARGES
-------------------------------
  0 C s       :     2.981707  s :     2.981707
      pz      :     0.909318  p :     2.829344
      px      :     0.832545
      py      :     1.087482
  1 C s       :     2.978681  s :     2.978681
      pz      :     1.077314  p :     3.238701
      px      :     1.105720
      py      :     1.055667
  2 C s       :     2.972811  s :     2.972811
      pz      :     1.031666  p :     3.244468
      px      :     1.134503
      py      :     1.078300
  3 C s       :     2.984507  s :     2.984507
      pz      :     1.038302  p :     3.047294
      px      :     1.122345
      py      :     0.886647
  4 O s       :     3.606609  s :     3.606609
      pz      :     1.381492  p :     4.711151
      px      :     1.762154
      py      :     1.567505
  5 H s       :     0.892984  s :     0.892984
  6 H s       :     0.882508  s :     0.882508
  7 H s       :     0.870453  s :     0.870453
  8 H s       :     0.883733  s :     0.883733
  9 H s       :     0.880336  s :     0.880336
 10 H s       :     0.895619  s :     0.895619
 11 H s       :     0.894520  s :     0.894520
 12 C s       :     3.005982  s :     3.005982
      pz      :     0.915667  p :     3.046697
      px      :     1.050983
      py      :     1.080048
 13 H s       :     0.885776  s :     0.885776
 14 H s       :     0.893328  s :     0.893328
 15 O s       :     3.656288  s :     3.656288
      pz      :     1.559431  p :     4.718197
      px      :     1.347762
      py      :     1.811004
 16 C s       :     2.968003  s :     2.968003
      pz      :     0.892301  p :     3.008982
      px      :     1.067480
      py      :     1.049200
 17 C s       :     2.975590  s :     2.975590
      pz      :     1.054949  p :     2.979327
      px      :     0.904603
      py      :     1.019775
 18 C s       :     2.982080  s :     2.982080
      pz      :     1.046205  p :     3.260291
      px      :     1.105419
      py      :     1.108667
 19 C s       :     2.983696  s :     2.983696
      pz      :     1.099125  p :     3.055973
      px      :     1.082708
      py      :     0.874140
 20 O s       :     3.602698  s :     3.602698
      pz      :     1.559017  p :     4.721960
      px      :     1.754219
      py      :     1.408724
 21 H s       :     0.877867  s :     0.877867
 22 O s       :     3.694392  s :     3.694392
      pz      :     1.549972  p :     4.749622
      px      :     1.337434
      py      :     1.862215
 23 H s       :     0.872041  s :     0.872041
 24 H s       :     0.873556  s :     0.873556
 25 H s       :     0.879914  s :     0.879914
 26 H s       :     0.896174  s :     0.896174
 27 H s       :     0.898841  s :     0.898841
 28 H s       :     0.717298  s :     0.717298


                      *****************************
                      * MAYER POPULATION ANALYSIS *
                      *****************************

  NA   - Mulliken gross atomic population
  ZA   - Total nuclear charge
  QA   - Mulliken gross atomic charge
  VA   - Mayer's total valence
  BVA  - Mayer's bonded valence
  FA   - Mayer's free valence

  ATOM       NA         ZA         QA         VA         BVA        FA
  0 C      5.7120     6.0000     0.2880     3.6395     3.6395     0.0000
  1 C      6.2650     6.0000    -0.2650     3.7186     3.7186     0.0000
  2 C      6.3016     6.0000    -0.3016     3.7633     3.7633    -0.0000
  3 C      6.0108     6.0000    -0.0108     3.6488     3.6488    -0.0000
  4 O      8.5146     8.0000    -0.5146     1.8088     1.8088    -0.0000
  5 H      0.8429     1.0000     0.1571     0.9252     0.9252     0.0000
  6 H      0.8498     1.0000     0.1502     0.9311     0.9311     0.0000
  7 H      0.8337     1.0000     0.1663     0.9358     0.9358    -0.0000
  8 H      0.8540     1.0000     0.1460     0.9363     0.9363     0.0000
  9 H      0.8358     1.0000     0.1642     0.9334     0.9334     0.0000
 10 H      0.8524     1.0000     0.1476     0.9274     0.9274     0.0000
 11 H      0.8520     1.0000     0.1480     0.9287     0.9287    -0.0000
 12 C      6.0385     6.0000    -0.0385     3.6139     3.6139     0.0000
 13 H      0.8338     1.0000     0.1662     0.9390     0.9390     0.0000
 14 H      0.8556     1.0000     0.1444     0.9304     0.9304     0.0000
 15 O      8.5329     8.0000    -0.5329     1.7666     1.7666     0.0000
 16 C      5.9308     6.0000     0.0692     3.5773     3.5773    -0.0000
 17 C      5.9161     6.0000     0.0839     3.6276     3.6276     0.0000
 18 C      6.3206     6.0000    -0.3206     3.7041     3.7041    -0.0000
 19 C      6.0295     6.0000    -0.0295     3.6641     3.6641    -0.0000
 20 O      8.5220     8.0000    -0.5220     1.7681     1.7681    -0.0000
 21 H      0.8280     1.0000     0.1720     0.9316     0.9316    -0.0000
 22 O      8.5985     8.0000    -0.5985     1.7563     1.7563     0.0000
 23 H      0.8307     1.0000     0.1693     0.9437     0.9437    -0.0000
 24 H      0.8377     1.0000     0.1623     0.9394     0.9394    -0.0000
 25 H      0.8376     1.0000     0.1624     0.9313     0.9313    -0.0000
 26 H      0.8533     1.0000     0.1467     0.9275     0.9275     0.0000
 27 H      0.8552     1.0000     0.1448     0.9295     0.9295    -0.0000
 28 H      0.6548     1.0000     0.3452     0.8508     0.8508     0.0000

  Mayer bond orders larger than 0.100000
B(  0-C ,  1-C ) :   0.9381 B(  0-C ,  4-O ) :   0.8988 B(  0-C ,  5-H ) :   0.9232 
B(  0-C , 15-O ) :   0.8414 B(  1-C ,  2-C ) :   0.9539 B(  1-C ,  6-H ) :   0.9325 
B(  1-C ,  7-H ) :   0.9332 B(  2-C ,  3-C ) :   0.9540 B(  2-C ,  8-H ) :   0.9442 
B(  2-C ,  9-H ) :   0.9440 B(  3-C ,  4-O ) :   0.8277 B(  3-C , 10-H ) :   0.9331 
B(  3-C , 11-H ) :   0.9401 B( 12-C , 13-H ) :   0.9033 B( 12-C , 14-H ) :   0.9251 
B( 12-C , 15-O ) :   0.8404 B( 12-C , 16-C ) :   0.8831 B( 16-C , 17-C ) :   0.9073 
B( 16-C , 20-O ) :   0.8415 B( 16-C , 21-H ) :   0.9279 B( 17-C , 18-C ) :   0.9195 
B( 17-C , 22-O ) :   0.8812 B( 17-C , 23-H ) :   0.9241 B( 18-C , 19-C ) :   0.9393 
B( 18-C , 24-H ) :   0.9372 B( 18-C , 25-H ) :   0.9272 B( 19-C , 20-O ) :   0.8462 
B( 19-C , 26-H ) :   0.9351 B( 19-C , 27-H ) :   0.9375 B( 22-O , 28-H ) :   0.8118 


-------
TIMINGS
-------

Total SCF time: 0 days 0 hours 10 min 4 sec 

Total time                  ....     604.403 sec
Sum of individual times     ....     546.419 sec  ( 90.4%)

Fock matrix formation       ....     520.783 sec  ( 86.2%)
  XC integration            ....     105.223 sec  ( 20.2% of F)
    Basis function eval.    ....       2.934 sec  (  2.8% of XC)
    Density eval.           ....       5.923 sec  (  5.6% of XC)
    XC-Functional eval.     ....       4.812 sec  (  4.6% of XC)
    XC-Potential eval.      ....       1.295 sec  (  1.2% of XC)
Diagonalization             ....       5.894 sec  (  1.0%)
Density matrix formation    ....       0.011 sec  (  0.0%)
Population analysis         ....       0.294 sec  (  0.0%)
Initial guess               ....       9.693 sec  (  1.6%)
Orbital Transformation      ....       0.000 sec  (  0.0%)
Orbital Orthonormalization  ....       0.000 sec  (  0.0%)
DIIS solution               ....       0.790 sec  (  0.1%)
SOSCF solution              ....       0.445 sec  (  0.1%)
Grid generation             ....       8.510 sec  (  1.4%)

-------------------------   --------------------
FINAL SINGLE POINT ENERGY      -652.837970962549
-------------------------   --------------------

------------------------------------------------------------------------------
                         ORCA SCF GRADIENT CALCULATION
------------------------------------------------------------------------------

Gradient of the Kohn-Sham DFT energy:
Kohn-Sham wavefunction type      ... RKS
Hartree-Fock exchange scaling    ...    0.200
Number of operators              ...    1
Number of atoms                  ...   29
Basis set dimensions             ...  149
Integral neglect threshold       ... 2.5e-11
Integral primitive cutoff        ... 2.5e-12

Nuclear repulsion gradient       ... done
One Electron Gradient            ... done
Pre-screening matrix             ... done
Starting the two electron gradient:
Two electron gradient done
Exchange-correlation gradient    ... done

------------------
CARTESIAN GRADIENT
------------------

   1   C   :    0.013692863    0.005855557   -0.017265373
   2   C   :    0.013454542   -0.003538457   -0.003620861
   3   C   :    0.000236380   -0.000195500   -0.001760083
   4   C   :   -0.002174723   -0.006627592   -0.003678976
   5   O   :    0.004059210   -0.004000887    0.015698709
   6   H   :    0.005460891    0.001470541   -0.001633262
   7   H   :    0.000615064    0.003418677    0.000324042
   8   H   :    0.000713174    0.002192410   -0.001288764
   9   H   :   -0.000614475    0.000855595    0.000045528
  10   H   :   -0.000740209    0.001405123    0.001167132
  11   H   :   -0.000307166    0.001154196    0.001024174
  12   H   :   -0.000058601    0.001146293    0.000529971
  13   C   :   -0.007729956    0.000721117    0.008599293
  14   H   :   -0.001444807   -0.006405883    0.002655927
  15   H   :   -0.003781467   -0.003384948    0.005966036
  16   O   :   -0.011822644    0.013071822   -0.022439327
  17   C   :   -0.010252040   -0.011353388    0.017176248
  18   C   :    0.029583150    0.013294507   -0.000871936
  19   C   :    0.004296816    0.000553624   -0.001145823
  20   C   :   -0.003907242    0.003222086   -0.001795641
  21   O   :   -0.004319007   -0.003183837   -0.000797014
  22   H   :    0.001857290    0.004406855    0.002910655
  23   O   :    0.010210517    0.002893419   -0.051066365
  24   H   :    0.011063292    0.001959514    0.003142312
  25   H   :    0.000899082   -0.001812534    0.002228226
  26   H   :    0.000003361    0.000508763    0.000874394
  27   H   :    0.000959648    0.000309599    0.000287873
  28   H   :    0.000462399    0.000186304   -0.000682357
  29   H   :   -0.050415342   -0.018122976    0.045415259

Difference to translation invariance:
           :    0.0000000000   -0.0000000000   -0.0000000001

Norm of the cartesian gradient     ...    0.1081024998
RMS gradient                       ...    0.0115898045
MAX gradient                       ...    0.0510663648

-------
TIMINGS
-------

Total SCF gradient time            ...      119.433 sec

One electron gradient       ....       0.309 sec  (  0.3%)
Prescreening matrices       ....       0.047 sec  (  0.0%)
Two electron gradient       ....     107.241 sec  ( 89.8%)
XC gradient                 ....       8.251 sec  (  6.9%)
------------------------------------------------------------------------------
                         ORCA GEOMETRY RELAXATION STEP
------------------------------------------------------------------------------

Reading the OPT-File                    .... done
Getting information on internals        .... done
Copying old internal coords+grads       .... done
Making the new internal coordinates     .... (new redundants).... done
Validating the new internal coordinates .... (new redundants).... done
Calculating the B-matrix                .... done
Calculating the G,G- and P matrices     .... done
Transforming gradient to internals      .... done
Projecting the internal gradient        .... done
Number of atoms                         ....  29
Number of internal coordinates          .... 172
Current Energy                          ....  -652.837970963 Eh
Current gradient norm                   ....     0.108102500 Eh/bohr
Maximum allowed component of the step   ....  0.300
Current trust radius                    ....  0.300
Evaluating the initial hessian          ....  (Almloef) done
Projecting the Hessian                  .... done
Forming the augmented Hessian           .... done
Diagonalizing the augmented Hessian     .... done
Last element of RFO vector              ....  0.946596572
Lowest eigenvalues of augmented Hessian:
 -0.035375444  0.007838767  0.033015548  0.033070870  0.036606444
Length of the computed step             ....  0.340610174
Warning: the length of the step is outside the trust region - taking restricted step instead
The input lambda is                     ....    -0.035375
   iter:   1  x=   -0.062776  g=    0.949447 f(x)=     0.026015
   iter:   2  x=   -0.071183  g=    0.620738 f(x)=     0.005219
   iter:   3  x=   -0.071633  g=    0.562399 f(x)=     0.000253
   iter:   4  x=   -0.071634  g=    0.559566 f(x)=     0.000001
   iter:   5  x=   -0.071634  g=    0.559559 f(x)=     0.000000
   iter:   6  x=   -0.071634  g=    0.559559 f(x)=     0.000000
[...]
  29   2.0000      -0.489340       -13.3156 
  30   2.0000      -0.471836       -12.8393 
  31   2.0000      -0.456996       -12.4355 
  32   2.0000      -0.450499       -12.2587 
  33   2.0000      -0.433977       -11.8091 
  34   2.0000      -0.418794       -11.3960 
  35   2.0000      -0.413087       -11.2407 
  36   2.0000      -0.406208       -11.0535 
  37   2.0000      -0.388606       -10.5745 
  38   2.0000      -0.376028       -10.2322 
  39   2.0000      -0.364160        -9.9093 
  40   2.0000      -0.363788        -9.8992 
  41   2.0000      -0.356968        -9.7136 
  42   2.0000      -0.351668        -9.5694 
  43   2.0000      -0.337116        -9.1734 
  44   2.0000      -0.326870        -8.8946 
  45   2.0000      -0.305938        -8.3250 
  46   2.0000      -0.301564        -8.2060 
  47   2.0000      -0.270231        -7.3534 
  48   2.0000      -0.267309        -7.2739 
  49   2.0000      -0.257953        -7.0193 
  50   2.0000      -0.238105        -6.4792 
  51   0.0000       0.068725         1.8701 
  52   0.0000       0.072597         1.9755 
  53   0.0000       0.096019         2.6128 
  54   0.0000       0.099171         2.6986 
  55   0.0000       0.102250         2.7824 
  56   0.0000       0.105911         2.8820 
  57   0.0000       0.114095         3.1047 
  58   0.0000       0.131470         3.5775 
  59   0.0000       0.135519         3.6877 
  60   0.0000       0.144673         3.9368 
  61   0.0000       0.148800         4.0490 
  62   0.0000       0.153515         4.1774 
  63   0.0000       0.161317         4.3897 
  64   0.0000       0.166678         4.5355 
  65   0.0000       0.167956         4.5703 
  66   0.0000       0.173937         4.7331 
  67   0.0000       0.195515         5.3202 
  68   0.0000       0.200128         5.4457 
  69   0.0000       0.204173         5.5558 
  70   0.0000       0.218811         5.9541 
  71   0.0000       0.222102         6.0437 
  72   0.0000       0.228578         6.2199 
  73   0.0000       0.235710         6.4140 
  74   0.0000       0.242117         6.5883 
  75   0.0000       0.256140         6.9699 
  76   0.0000       0.265094         7.2136 
  77   0.0000       0.275759         7.5038 
  78   0.0000       0.284220         7.7340 
  79   0.0000       0.296803         8.0764 
  80   0.0000       0.307548         8.3688 
  81   0.0000       0.515369        14.0239 
  82   0.0000       0.527490        14.3537 
  83   0.0000       0.541184        14.7264 
  84   0.0000       0.545411        14.8414 
  85   0.0000       0.556973        15.1560 
  86   0.0000       0.566498        15.4152 
  87   0.0000       0.582749        15.8574 
  88   0.0000       0.591749        16.1023 
  89   0.0000       0.592117        16.1123 
  90   0.0000       0.604484        16.4488 
  91   0.0000       0.608382        16.5549 
  92   0.0000       0.626890        17.0585 
  93   0.0000       0.630770        17.1641 
  94   0.0000       0.639967        17.4144 
  95   0.0000       0.649450        17.6724 
  96   0.0000       0.663679        18.0596 
  97   0.0000       0.674477        18.3534 
  98   0.0000       0.690434        18.7877 
  99   0.0000       0.718232        19.5441 
 100   0.0000       0.731180        19.8964 
 101   0.0000       0.782367        21.2893 
 102   0.0000       0.792860        21.5748 
 103   0.0000       0.801649        21.8140 
 104   0.0000       0.822605        22.3842 
 105   0.0000       0.832897        22.6643 
 106   0.0000       0.851732        23.1768 
 107   0.0000       0.863123        23.4868 
 108   0.0000       0.864012        23.5110 
 109   0.0000       0.872506        23.7421 
 110   0.0000       0.881287        23.9810 
 111   0.0000       0.893735        24.3198 
 112   0.0000       0.898215        24.4417 
 113   0.0000       0.915302        24.9066 
 114   0.0000       0.920004        25.0346 
 115   0.0000       0.930955        25.3326 
 116   0.0000       0.932470        25.3738 
 117   0.0000       0.944887        25.7117 
 118   0.0000       0.955197        25.9922 
 119   0.0000       0.975965        26.5573 
 120   0.0000       0.981534        26.7089 
 121   0.0000       0.987582        26.8735 
 122   0.0000       0.998150        27.1610 
 123   0.0000       1.005285        27.3552 
 124   0.0000       1.032714        28.1016 
 125   0.0000       1.044136        28.4124 
 126   0.0000       1.086100        29.5543 
 127   0.0000       1.099288        29.9132 
 128   0.0000       1.114148        30.3175 
 129   0.0000       1.136629        30.9292 
 130   0.0000       1.181757        32.1573 
 131   0.0000       1.246830        33.9280 
 132   0.0000       1.258089        34.2343 
 133   0.0000       1.314703        35.7749 
 134   0.0000       1.321850        35.9694 
 135   0.0000       1.343147        36.5489 
 136   0.0000       1.367575        37.2136 
 137   0.0000       1.396862        38.0105 
 138   0.0000       1.431842        38.9624 
 139   0.0000       1.488679        40.5090 
 140   0.0000       1.520422        41.3728 
 141   0.0000       1.575348        42.8674 
 142   0.0000       1.666334        45.3432 
 143   0.0000       1.690242        45.9938 
 144   0.0000       1.740845        47.3708 
 145   0.0000       1.903923        51.8084 
 146   0.0000       1.912919        52.0532 
 147   0.0000       2.066468        56.2314 
 148   0.0000       2.134296        58.0772 

                    ********************************
                    * MULLIKEN POPULATION ANALYSIS *
                    ********************************

-----------------------
MULLIKEN ATOMIC CHARGES
-----------------------
   0 C :    0.299101
   1 C :   -0.256241
   2 C :   -0.306256
   3 C :   -0.015370
   4 O :   -0.515188
   5 H :    0.152145
   6 H :    0.144174
   7 H :    0.164296
   8 H :    0.147624
   9 H :    0.160640
  10 H :    0.148647
  11 H :    0.151901
  12 C :   -0.019070
  13 H :    0.161391
  14 H :    0.143356
  15 O :   -0.543855
  16 C :    0.061112
  17 C :    0.092295
  18 C :   -0.306002
  19 C :   -0.030474
  20 O :   -0.528581
  21 H :    0.164400
  22 O :   -0.604855
  23 H :    0.164794
  24 H :    0.159833
  25 H :    0.156387
  26 H :    0.144875
  27 H :    0.146965
  28 H :    0.361957
Sum of atomic charges:    0.0000000

--------------------------------
MULLIKEN REDUCED ORBITAL CHARGES
--------------------------------
  0 C s       :     3.194678  s :     3.194678
      pz      :     0.802808  p :     2.506221
      px      :     0.674217
      py      :     1.029196
  1 C s       :     3.303775  s :     3.303775
      pz      :     0.971313  p :     2.952466
      px      :     1.049368
      py      :     0.931786
  2 C s       :     3.316683  s :     3.316683
      pz      :     0.916842  p :     2.989572
      px      :     1.081416
      py      :     0.991314
  3 C s       :     3.268613  s :     3.268613
      pz      :     0.954754  p :     2.746757
      px      :     1.060980
      py      :     0.731024
  4 O s       :     3.939835  s :     3.939835
      pz      :     1.373520  p :     4.575352
      px      :     1.687884
      py      :     1.513948
  5 H s       :     0.847855  s :     0.847855
  6 H s       :     0.855826  s :     0.855826
  7 H s       :     0.835704  s :     0.835704
  8 H s       :     0.852376  s :     0.852376
  9 H s       :     0.839360  s :     0.839360
 10 H s       :     0.851353  s :     0.851353
 11 H s       :     0.848099  s :     0.848099
 12 C s       :     3.264038  s :     3.264038
      pz      :     0.804951  p :     2.755031
      px      :     0.932487
      py      :     1.017593
 13 H s       :     0.838609  s :     0.838609
 14 H s       :     0.856644  s :     0.856644
 15 O s       :     3.924367  s :     3.924367
      pz      :     1.511087  p :     4.619488
      px      :     1.301561
      py      :     1.806839
 16 C s       :     3.270018  s :     3.270018
      pz      :     0.764879  p :     2.668870
      px      :     0.970171
      py      :     0.933820
 17 C s       :     3.258837  s :     3.258837
      pz      :     0.952167  p :     2.648867
      px      :     0.802788
      py      :     0.893912
 18 C s       :     3.315755  s :     3.315755
      pz      :     0.927982  p :     2.990247
      px      :     1.020117
      py      :     1.042148
 19 C s       :     3.269928  s :     3.269928
      pz      :     1.017277  p :     2.760546
      px      :     1.016886
      py      :     0.726383
 20 O s       :     3.946933  s :     3.946933
      pz      :     1.513025  p :     4.581647
      px      :     1.728870
      py      :     1.339752
 21 H s       :     0.835600  s :     0.835600
 22 O s       :     3.920044  s :     3.920044
      pz      :     1.589909  p :     4.684811
      px      :     1.212326
      py      :     1.882577
 23 H s       :     0.835206  s :     0.835206
 24 H s       :     0.840167  s :     0.840167
 25 H s       :     0.843613  s :     0.843613
 26 H s       :     0.855125  s :     0.855125
 27 H s       :     0.853035  s :     0.853035
 28 H s       :     0.638043  s :     0.638043


                     *******************************
                     * LOEWDIN POPULATION ANALYSIS *
                     *******************************

----------------------
LOEWDIN ATOMIC CHARGES
----------------------
   0 C :    0.181374
   1 C :   -0.217564
   2 C :   -0.217915
   3 C :   -0.030850
   4 O :   -0.321348
   5 H :    0.100619
   6 H :    0.113521
   7 H :    0.127740
   8 H :    0.117555
   9 H :    0.117940
  10 H :    0.105458
  11 H :    0.107765
  12 C :   -0.044965
  13 H :    0.110951
  14 H :    0.103783
  15 O :   -0.347052
  16 C :    0.015253
  17 C :    0.038505
  18 C :   -0.243604
  19 C :   -0.038315
  20 O :   -0.332144
  21 H :    0.116711
  22 O :   -0.416093
  23 H :    0.121941
  24 H :    0.125488
  25 H :    0.118210
  26 H :    0.103304
  27 H :    0.102639
  28 H :    0.281093

-------------------------------
LOEWDIN REDUCED ORBITAL CHARGES
-------------------------------
  0 C s       :     2.954071  s :     2.954071
      pz      :     0.924478  p :     2.864556
      px      :     0.839483
      py      :     1.100595
  1 C s       :     2.979318  s :     2.979318
      pz      :     1.073697  p :     3.238246
      px      :     1.114281
      py      :     1.050267
  2 C s       :     2.970468  s :     2.970468
      pz      :     1.037962  p :     3.247447
      px      :     1.129233
      py      :     1.080253
  3 C s       :     2.987481  s :     2.987481
      pz      :     1.049321  p :     3.043370
      px      :     1.122070
      py      :     0.871979
  4 O s       :     3.601539  s :     3.601539
      pz      :     1.434362  p :     4.719809
      px      :     1.725022
      py      :     1.560425
  5 H s       :     0.899381  s :     0.899381
  6 H s       :     0.886479  s :     0.886479
  7 H s       :     0.872260  s :     0.872260
  8 H s       :     0.882445  s :     0.882445
  9 H s       :     0.882060  s :     0.882060
 10 H s       :     0.894542  s :     0.894542
 11 H s       :     0.892235  s :     0.892235
 12 C s       :     2.981148  s :     2.981148
      pz      :     0.929109  p :     3.063817
      px      :     1.043851
      py      :     1.090857
 13 H s       :     0.889049  s :     0.889049
 14 H s       :     0.896217  s :     0.896217
 15 O s       :     3.582841  s :     3.582841
      pz      :     1.563755  p :     4.764211
      px      :     1.370214
      py      :     1.830242
 16 C s       :     2.968348  s :     2.968348
      pz      :     0.908344  p :     3.016398
      px      :     1.056036
      py      :     1.052019
 17 C s       :     2.952822  s :     2.952822
      pz      :     1.051686  p :     3.008673
      px      :     0.929623
      py      :     1.027363
 18 C s       :     2.983656  s :     2.983656
      pz      :     1.049174  p :     3.259949
      px      :     1.105369
      py      :     1.105405
 19 C s       :     2.984844  s :     2.984844
      pz      :     1.099894  p :     3.053471
      px      :     1.094497
      py      :     0.859080
 20 O s       :     3.604661  s :     3.604661
      pz      :     1.563963  p :     4.727483
      px      :     1.762834
      py      :     1.400686
 21 H s       :     0.883289  s :     0.883289
 22 O s       :     3.614039  s :     3.614039
      pz      :     1.633348  p :     4.802053
      px      :     1.277105
      py      :     1.891601
 23 H s       :     0.878059  s :     0.878059
 24 H s       :     0.874512  s :     0.874512
 25 H s       :     0.881790  s :     0.881790
 26 H s       :     0.896696  s :     0.896696
 27 H s       :     0.897361  s :     0.897361
 28 H s       :     0.718907  s :     0.718907


                      *****************************
                      * MAYER POPULATION ANALYSIS *
                      *****************************

  NA   - Mulliken gross atomic population
  ZA   - Total nuclear charge
  QA   - Mulliken gross atomic charge
  VA   - Mayer's total valence
  BVA  - Mayer's bonded valence
  FA   - Mayer's free valence

  ATOM       NA         ZA         QA         VA         BVA        FA
  0 C      5.7009     6.0000     0.2991     3.6520     3.6520    -0.0000
  1 C      6.2562     6.0000    -0.2562     3.7158     3.7158     0.0000
  2 C      6.3063     6.0000    -0.3063     3.7664     3.7664    -0.0000
  3 C      6.0154     6.0000    -0.0154     3.6504     3.6504     0.0000
  4 O      8.5152     8.0000    -0.5152     1.7978     1.7978    -0.0000
  5 H      0.8479     1.0000     0.1521     0.9270     0.9270     0.0000
  6 H      0.8558     1.0000     0.1442     0.9338     0.9338     0.0000
  7 H      0.8357     1.0000     0.1643     0.9381     0.9381     0.0000
  8 H      0.8524     1.0000     0.1476     0.9367     0.9367     0.0000
  9 H      0.8394     1.0000     0.1606     0.9334     0.9334     0.0000
 10 H      0.8514     1.0000     0.1486     0.9271     0.9271    -0.0000
 11 H      0.8481     1.0000     0.1519     0.9286     0.9286     0.0000
 12 C      6.0191     6.0000    -0.0191     3.6073     3.6073    -0.0000
 13 H      0.8386     1.0000     0.1614     0.9418     0.9418     0.0000
 14 H      0.8566     1.0000     0.1434     0.9297     0.9297     0.0000
 15 O      8.5439     8.0000    -0.5439     1.7162     1.7162    -0.0000
 16 C      5.9389     6.0000     0.0611     3.5939     3.5939    -0.0000
 17 C      5.9077     6.0000     0.0923     3.6339     3.6339     0.0000
 18 C      6.3060     6.0000    -0.3060     3.6945     3.6945    -0.0000
 19 C      6.0305     6.0000    -0.0305     3.6659     3.6659     0.0000
 20 O      8.5286     8.0000    -0.5286     1.7601     1.7601     0.0000
 21 H      0.8356     1.0000     0.1644     0.9329     0.9329     0.0000
 22 O      8.6049     8.0000    -0.6049     1.7430     1.7430    -0.0000
 23 H      0.8352     1.0000     0.1648     0.9409     0.9409     0.0000
 24 H      0.8402     1.0000     0.1598     0.9402     0.9402    -0.0000
 25 H      0.8436     1.0000     0.1564     0.9333     0.9333     0.0000
 26 H      0.8551     1.0000     0.1449     0.9276     0.9276    -0.0000
 27 H      0.8530     1.0000     0.1470     0.9285     0.9285    -0.0000
 28 H      0.6380     1.0000     0.3620     0.8340     0.8340     0.0000

  Mayer bond orders larger than 0.100000
B(  0-C ,  1-C ) :   0.9390 B(  0-C ,  4-O ) :   0.9109 B(  0-C ,  5-H ) :   0.9251 
B(  0-C , 15-O ) :   0.8397 B(  1-C ,  2-C ) :   0.9527 B(  1-C ,  6-H ) :   0.9359 
B(  1-C ,  7-H ) :   0.9351 B(  2-C ,  3-C ) :   0.9556 B(  2-C ,  8-H ) :   0.9444 
B(  2-C ,  9-H ) :   0.9448 B(  3-C ,  4-O ) :   0.8246 B(  3-C , 10-H ) :   0.9346 
B(  3-C , 11-H ) :   0.9404 B( 12-C , 13-H ) :   0.9103 B( 12-C , 14-H ) :   0.9260 
B( 12-C , 15-O ) :   0.8190 B( 12-C , 16-C ) :   0.8995 B( 16-C , 17-C ) :   0.9110 
B( 16-C , 20-O ) :   0.8386 B( 16-C , 21-H ) :   0.9267 B( 17-C , 18-C ) :   0.9133 
B( 17-C , 22-O ) :   0.8888 B( 17-C , 23-H ) :   0.9269 B( 18-C , 19-C ) :   0.9409 
B( 18-C , 24-H ) :   0.9382 B( 18-C , 25-H ) :   0.9323 B( 19-C , 20-O ) :   0.8448 
B( 19-C , 26-H ) :   0.9358 B( 19-C , 27-H ) :   0.9380 B( 22-O , 28-H ) :   0.7961 


-------
TIMINGS
-------

Total SCF time: 0 days 0 hours 4 min 4 sec 

Total time                  ....     244.660 sec
Sum of individual times     ....     189.935 sec  ( 77.6%)

Fock matrix formation       ....     180.163 sec  ( 73.6%)
  XC integration            ....      78.875 sec  ( 43.8% of F)
    Basis function eval.    ....       2.091 sec  (  2.7% of XC)
    Density eval.           ....       2.414 sec  (  3.1% of XC)
    XC-Functional eval.     ....       2.736 sec  (  3.5% of XC)
    XC-Potential eval.      ....       0.803 sec  (  1.0% of XC)
Diagonalization             ....       4.010 sec  (  1.6%)
Density matrix formation    ....       0.006 sec  (  0.0%)
Population analysis         ....       0.029 sec  (  0.0%)
Initial guess               ....       0.010 sec  (  0.0%)
Orbital Transformation      ....       0.000 sec  (  0.0%)
Orbital Orthonormalization  ....       0.005 sec  (  0.0%)
DIIS solution               ....       0.001 sec  (  0.0%)
SOSCF solution              ....       0.847 sec  (  0.3%)
Grid generation             ....       4.868 sec  (  2.0%)

-------------------------   --------------------
FINAL SINGLE POINT ENERGY      -652.864084683042
-------------------------   --------------------

                                *** OPTIMIZATION RUN DONE ***

                            ***************************************
                            *     ORCA property calculations      *
                            ***************************************

                                    ---------------------
                                    Active property flags
                                    ---------------------
   (+) Dipole Moment


------------------------------------------------------------------------------
                       ORCA ELECTRIC PROPERTIES CALCULATION
------------------------------------------------------------------------------

Dipole Moment Calculation                       ... on
Quadrupole Moment Calculation                   ... off
Polarizability Calculation                      ... off
GBWName                                         ... project_8050/ensemble_345_225.gbw
Electron density file                           ... project_8050/ensemble_345_225.scfp
The origin for moment calculation is the CENTER OF MASS  = (-42.981209, 47.788402 89.257502)

-------------
DIPOLE MOMENT
-------------
                                X             Y             Z
Electronic contribution:     -3.95530      -1.82787      -1.50371
Nuclear contribution   :      4.93375       2.26187       2.05745
                        -----------------------------------------
Total Dipole Moment    :      0.97845       0.43400       0.55374
                        -----------------------------------------
Magnitude (a.u.)       :      1.20514
Magnitude (Debye)      :      3.06321



--------------------
Rotational spectrum 
--------------------
 
Rotational constants in cm-1:     0.057692     0.013168     0.012451 
Rotational constants in MHz :  1729.559059   394.775543   373.257217 

 Dipole components along the rotational axes: 
x,y,z [a.u.] :    -0.999745    -0.645999     0.188543 
x,y,z [Debye]:    -2.541149    -1.642000     0.479239 

 

Timings for individual modules:

Sum of individual times         ...     3532.944 sec (=  58.882 min)
GTO integral calculation        ...       65.780 sec (=   1.096 min)   1.9 %
SCF iterations                  ...     3133.235 sec (=  52.221 min)  88.7 %
SCF Gradient evaluation         ...      289.815 sec (=   4.830 min)   8.2 %
Geometry relaxation             ...       44.115 sec (=   0.735 min)   1.2 %
                             ****ORCA TERMINATED NORMALLY****
TOTAL RUN TIME: 0 days 1 hours 1 minutes 14 seconds 46 msec
