
                                 *****************
                                 * O   R   C   A *
                                 *****************

           --- An Ab Initio, DFT and Semiempirical electronic structure package ---

                  #######################################################
                  #                        -***-                        #
                  #          Department of theory and spectroscopy      #
                  #               Directorship: Frank Neese             #
                  #        Max Planck Institute fuer Kohlenforschung    #
                  #                Kaiser Wilhelm Platz 1               #
                  #                 D-45470 Muelheim/Ruhr               #
                  #                      Germany                        #
                  #                                                     #
                  #                  All rights reserved                #
                  #                        -***-                        #
                  #######################################################


                         Program Version 4.2.1 -  RELEASE  -


 With contributions from (in alphabetic order):
   Daniel Aravena         : Magnetic Suceptibility
   Michael Atanasov       : Ab Initio Ligand Field Theory (pilot matlab implementation)
   Alexander A. Auer      : GIAO ZORA, VPT2
   Ute Becker             : Parallelization
   Giovanni Bistoni       : ED, misc. LED, open-shell LED, HFLD
   Martin Brehm           : Molecular dynamics
   Dmytro Bykov           : SCF Hessian
   Vijay G. Chilkuri      : MRCI spin determinant printing, contributions to CSF-ICE
   Dipayan Datta          : RHF DLPNO-CCSD density
   Achintya Kumar Dutta   : EOM-CC, STEOM-CC
   Dmitry Ganyushin       : Spin-Orbit,Spin-Spin,Magnetic field MRCI
   Miquel Garcia          : C-PCM Hessian, Gaussian charge scheme
   Yang Guo               : DLPNO-NEVPT2, CIM, IAO-localization
   Andreas Hansen         : Spin unrestricted coupled pair/coupled cluster methods
   Benjamin Helmich-Paris : CASSCF linear response (MC-RPA)
   Lee Huntington         : MR-EOM, pCC
   Robert Izsak           : Overlap fitted RIJCOSX, COSX-SCS-MP3, EOM
   Christian Kollmar      : KDIIS, OOCD, Brueckner-CCSD(T), CCSD density
   Simone Kossmann        : Meta GGA functionals, TD-DFT gradient, OOMP2, MP2 Hessian
   Martin Krupicka        : AUTO-CI
   Lucas Lang             : DCDCAS
   Dagmar Lenk            : GEPOL surface, SMD
   Dimitrios Liakos       : Extrapolation schemes; Compound Job, initial MDCI parallelization
   Dimitrios Manganas     : Further ROCIS development; embedding schemes
   Dimitrios Pantazis     : SARC Basis sets
   Taras Petrenko         : DFT Hessian,TD-DFT gradient, ASA, ECA, R-Raman, ABS, FL, XAS/XES, NRVS
   Peter Pinski           : DLPNO-MP2, DLPNO-MP2 Gradient
   Christoph Reimann      : Effective Core Potentials
   Marius Retegan         : Local ZFS, SOC
   Christoph Riplinger    : Optimizer, TS searches, QM/MM, DLPNO-CCSD(T), (RO)-DLPNO pert. Triples
   Tobias Risthaus        : Range-separated hybrids, TD-DFT gradient, RPA, STAB
   Michael Roemelt        : Original ROCIS implementation
   Masaaki Saitow         : Open-shell DLPNO-CCSD energy and density
   Barbara Sandhoefer     : DKH picture change effects
   Avijit Sen             : IP-ROCIS
   Kantharuban Sivalingam : CASSCF convergence, NEVPT2, FIC-MRCI
   Bernardo de Souza      : ESD, SOC TD-DFT
   Georgi Stoychev        : AutoAux, RI-MP2 NMR
   Willem Van den Heuvel  : Paramagnetic NMR
   Boris Wezisla          : Elementary symmetry handling
   Frank Wennmohs         : Technical directorship


 We gratefully acknowledge several colleagues who have allowed us to
 interface, adapt or use parts of their codes:
   Stefan Grimme, W. Hujo, H. Kruse,             : VdW corrections, initial TS optimization,
                  C. Bannwarth                     DFT functionals, gCP, sTDA/sTD-DF
   Ed Valeev, F. Pavosevic, A. Kumar             : LibInt (2-el integral package), F12 methods
   Garnet Chan, S. Sharma, J. Yang, R. Olivares  : DMRG
   Ulf Ekstrom                                   : XCFun DFT Library
   Mihaly Kallay                                 : mrcc  (arbitrary order and MRCC methods)
   Andreas Klamt, Michael Diedenhofen            : otool_cosmo (COSMO solvation model)
   Jiri Pittner, Ondrej Demel                    : Mk-CCSD
   Frank Weinhold                                : gennbo (NPA and NBO analysis)
   Christopher J. Cramer and Donald G. Truhlar   : smd solvation model
   Lars Goerigk                                  : TD-DFT with DH, B97 family of functionals
   V. Asgeirsson, H. Jonsson                     : NEB implementation
   FAccTs GmbH                                   : IRC, NEB, NEB-TS, Multilevel, MM, QM/MM, CI optimization
   S Lehtola, MJT Oliveira, MAL Marques          : LibXC Library


 Your calculation uses the libint2 library for the computation of 2-el integrals
 For citations please refer to: http://libint.valeyev.net

 Your ORCA version has been built with support for libXC version: 4.2.3
 For citations please refer to: https://tddft.org/programs/libxc/

 This ORCA versions uses:
   CBLAS   interface :  Fast vector & matrix operations
   LAPACKE interface :  Fast linear algebra routines
   SCALAPACK package :  Parallel linear algebra routines


----- Orbital basis set information -----
Your calculation utilizes the basis: 6-31G
   H-He, Li-Ne : W. J. Hehre, R. Ditchfield and J.A. Pople, J. Chem. Phys. 56, 2257 (1972).
                 Note: He and Ne are unpublished basis sets taken from the Gaussian program.
                 Note: Li and B from J. D. Dill and J. A. Pople, J. Chem. Phys. 62, 2921 (1975).
   Na - Ar     : M. M. Francl, W. J. Pietro, W. J. Hehre, J. S. Binkley, M. S. Gordon, 
                 D. J. DeFrees and J. A. Pople, J. Chem. Phys. 77, 3654 (1982).
   K - Zn      : V. A. Rassolov, J. A. Pople, M. A. Ratner, and T. L. Windus, J. Chem. Phys. 109, 1223 (1998).

================================================================================
                                        WARNINGS
                       Please study these warnings very carefully!
================================================================================


WARNING: Geometry Optimization
  ===> : Switching off AutoStart
         For restart on a previous wavefunction, please use MOREAD

INFO   : the flag for use of LIBINT has been found!

================================================================================
                                       INPUT FILE
================================================================================
NAME = ensemble_195_0.inp
|  1> # Test redundant internal optimization
|  2> #
|  3> ! RKS B3LYP  Opt TightSCF SmallPrint
|  4> 
|  5> %basis
|  6>         Basis "6-31G"
|  7> end
|  8> 
|  9> %geom
| 10> Constraints
| 11> { D 4  0  19  14  195.0   C } # D for Dihedral angle
| 12> { D 0  19  14  12  0.0   C } # D for Dihedral angle
| 13> { D 0  4  3  2   C } # D for Dihedral angle
| 14> { D 4  3  2  1   C } # D for Dihedral angle
| 15> { D 3  2  1  0   C } # D for Dihedral angle
| 16> { D 2  1  0  4   C } # D for Dihedral angle
| 17> { D 1  0  4  3   C } # D for Dihedral angle
| 18> { D 14  15  16  17   C } # D for Dihedral angle
| 19> { D 15  16  17  12   C } # D for Dihedral angle
| 20> { D 16  17  12  14   C } # D for Dihedral angle
| 21> { D 17  12  14  15   C } # D for Dihedral angle
| 22> { D 12  14  15  16   C } # D for Dihedral angle
| 23> end
| 24> end
| 25> 
| 26> 
| 27> #%pal 
| 28> #nprocs 8
| 29> #end
| 30> 
| 31> * xyz 0 1
| 32> C  -21.048   26.222   46.251
| 33> C  -20.361   27.558   45.944
| 34> C  -20.329   28.222   47.341
| 35> C  -20.110   27.022   48.296
| 36> O  -20.473   25.807   47.535
| 37> H  -20.833   25.428   45.533
| 38> H  -19.344   27.382   45.576
| 39> H  -20.898   28.157   45.201
| 40> H  -19.543   28.978   47.434
| 41> H  -21.289   28.710   47.548
| 42> H  -20.733   27.082   49.195
| 43> H  -19.064   26.913   48.597
| 44> C  -22.164   26.334   43.952
| 45> H  -22.609   26.670   43.002
| 46> C  -23.163   26.451   45.109
| 47> C  -24.039   25.195   44.896
| 48> C  -23.029   24.146   44.367
| 49> O  -21.849   24.902   43.891
| 50> H  -21.223   26.861   44.112
| 51> O  -22.472   26.381   46.366
| 52> H  -23.742   27.381   45.084
| 53> H  -24.541   24.866   45.812
| 54> H  -24.814   25.397   44.145
| 55> H  -23.433   23.553   43.539
| 56> H  -22.681   23.468   45.152
| 57> *
| 58> 
| 59>                          ****END OF INPUT****
================================================================================

                       *****************************
                       * Geometry Optimization Run *
                       *****************************

Geometry optimization settings:
Update method            Update   .... BFGS
Choice of coordinates    CoordSys .... Z-matrix Internals
Initial Hessian          InHess   .... Almoef's Model

Convergence Tolerances:
Energy Change            TolE     ....  5.0000e-06 Eh
Max. Gradient            TolMAXG  ....  3.0000e-04 Eh/bohr
RMS Gradient             TolRMSG  ....  1.0000e-04 Eh/bohr
Max. Displacement        TolMAXD  ....  4.0000e-03 bohr
RMS Displacement         TolRMSD  ....  2.0000e-03 bohr
Strict Convergence                ....  False
------------------------------------------------------------------------------
                        ORCA OPTIMIZATION COORDINATE SETUP
------------------------------------------------------------------------------

The optimization will be done in new redundant internal coordinates
Making redundant internal coordinates   ...  (new redundants) done
Evaluating the initial hessian          ...  (Almloef) done
Evaluating the coordinates              ...  done
Calculating the B-matrix                .... done
Calculating the G-matrix                .... done
Diagonalizing the G-matrix              .... done
Imposing constraints:
 Iter   0:  RMS(Cart)=    0.0000860317 RMS(Int)=    0.0000497503
 Iter   1:  RMS(Cart)=    0.0000475626 RMS(Int)=    0.0000280932
 Iter   2:  RMS(Cart)=    0.0000264215 RMS(Int)=    0.0000166688
 Iter   3:  RMS(Cart)=    0.0000147796 RMS(Int)=    0.0000109792
 Iter   4:  RMS(Cart)=    0.0000083684 RMS(Int)=    0.0000084086
 Iter   5:  RMS(Cart)=    0.0000048544 RMS(Int)=    0.0000073306
 Iter   6:  RMS(Cart)=    0.0000029588 RMS(Int)=    0.0000068509
 Iter   7:  RMS(Cart)=    0.0000019729 RMS(Int)=    0.0000065835
 Iter   8:  RMS(Cart)=    0.0000014875 RMS(Int)=    0.0000063891
 Iter   9:  RMS(Cart)=    0.0000012566 RMS(Int)=    0.0000062210
 Iter  10:  RMS(Cart)=    0.0000011418 RMS(Int)=    0.0000060642
 Iter  11:  RMS(Cart)=    0.0000010766 RMS(Int)=    0.0000059136
 Iter  12:  RMS(Cart)=    0.0000010328 RMS(Int)=    0.0000057676
 Iter  13:  RMS(Cart)=    0.0000009987 RMS(Int)=    0.0000056255
 Iter  14:  RMS(Cart)=    0.0000009695 RMS(Int)=    0.0000054872
 Iter  15:  RMS(Cart)=    0.0000009431 RMS(Int)=    0.0000053525
 Iter  16:  RMS(Cart)=    0.0000009183 RMS(Int)=    0.0000052212
 Iter  17:  RMS(Cart)=    0.0000008947 RMS(Int)=    0.0000050932
 Iter  18:  RMS(Cart)=    0.0000008721 RMS(Int)=    0.0000049685
 Iter  19:  RMS(Cart)=    0.0000008501 RMS(Int)=    0.0000048470
 Iter  20:  RMS(Cart)=    0.0000008289 RMS(Int)=    0.0000047286
 Iter  21:  RMS(Cart)=    0.0000008082 RMS(Int)=    0.0000046132
 Iter  22:  RMS(Cart)=    0.0000007881 RMS(Int)=    0.0000045007
 Iter  23:  RMS(Cart)=    0.0000007685 RMS(Int)=    0.0000043910
 Iter  24:  RMS(Cart)=    0.0000007494 RMS(Int)=    0.0000042842
 Iter  25:  RMS(Cart)=    0.0000007308 RMS(Int)=    0.0000041800
 Iter  26:  RMS(Cart)=    0.0000007127 RMS(Int)=    0.0000040785
 Iter  27:  RMS(Cart)=    0.0000006950 RMS(Int)=    0.0000039795
 Iter  28:  RMS(Cart)=    0.0000006778 RMS(Int)=    0.0000038831
 Iter  29:  RMS(Cart)=    0.0000006610 RMS(Int)=    0.0000037890
 Iter  30:  RMS(Cart)=    0.0000006447 RMS(Int)=    0.0000036973
 Iter  31:  RMS(Cart)=    0.0000006287 RMS(Int)=    0.0000036080
 Iter  32:  RMS(Cart)=    0.0000006132 RMS(Int)=    0.0000035208
 Iter  33:  RMS(Cart)=    0.0000005980 RMS(Int)=    0.0000034359
 Iter  34:  RMS(Cart)=    0.0000005833 RMS(Int)=    0.0000033531
 Iter  35:  RMS(Cart)=    0.0000005689 RMS(Int)=    0.0000032724
 Iter  36:  RMS(Cart)=    0.0000005548 RMS(Int)=    0.0000031936
 Iter  37:  RMS(Cart)=    0.0000005412 RMS(Int)=    0.0000031169
 Iter  38:  RMS(Cart)=    0.0000005278 RMS(Int)=    0.0000030421
 Iter  39:  RMS(Cart)=    0.0000005148 RMS(Int)=    0.0000029691
 Iter  40:  RMS(Cart)=    0.0000005021 RMS(Int)=    0.0000028980
 Iter  41:  RMS(Cart)=    0.0000004898 RMS(Int)=    0.0000028286
 Iter  42:  RMS(Cart)=    0.0000004777 RMS(Int)=    0.0000027610
 Iter  43:  RMS(Cart)=    0.0000004660 RMS(Int)=    0.0000026950
 Iter  44:  RMS(Cart)=    0.0000004545 RMS(Int)=    0.0000026307
 Iter  45:  RMS(Cart)=    0.0000004433 RMS(Int)=    0.0000025680
 Iter  46:  RMS(Cart)=    0.0000004324 RMS(Int)=    0.0000025068
 Iter  47:  RMS(Cart)=    0.0000004218 RMS(Int)=    0.0000024472
 Iter  48:  RMS(Cart)=    0.0000004115 RMS(Int)=    0.0000023890
 Iter  49:  RMS(Cart)=    0.0000004014 RMS(Int)=    0.0000023323
 Iter  50:  RMS(Cart)=    0.0000003915 RMS(Int)=    0.0000022770
 Iter  51:  RMS(Cart)=    0.0000003819 RMS(Int)=    0.0000022231
 Iter  52:  RMS(Cart)=    0.0000003726 RMS(Int)=    0.0000021705
 Iter  53:  RMS(Cart)=    0.0000003634 RMS(Int)=    0.0000021192
 Iter  54:  RMS(Cart)=    0.0000003545 RMS(Int)=    0.0000020691
 Iter  55:  RMS(Cart)=    0.0000003458 RMS(Int)=    0.0000020203
 Iter  56:  RMS(Cart)=    0.0000003374 RMS(Int)=    0.0000019727
 Iter  57:  RMS(Cart)=    0.0000003291 RMS(Int)=    0.0000019263
 Iter  58:  RMS(Cart)=    0.0000003210 RMS(Int)=    0.0000018810
 Iter  59:  RMS(Cart)=    0.0000003132 RMS(Int)=    0.0000018369
 Iter  60:  RMS(Cart)=    0.0000003055 RMS(Int)=    0.0000017938
 Iter  61:  RMS(Cart)=    0.0000002981 RMS(Int)=    0.0000017518
 Iter  62:  RMS(Cart)=    0.0000002908 RMS(Int)=    0.0000017108
 Iter  63:  RMS(Cart)=    0.0000002837 RMS(Int)=    0.0000016709
 Iter  64:  RMS(Cart)=    0.0000002767 RMS(Int)=    0.0000016319
 Iter  65:  RMS(Cart)=    0.0000002700 RMS(Int)=    0.0000015938
 Iter  66:  RMS(Cart)=    0.0000002634 RMS(Int)=    0.0000015568
 Iter  67:  RMS(Cart)=    0.0000002570 RMS(Int)=    0.0000015206
 Iter  68:  RMS(Cart)=    0.0000002507 RMS(Int)=    0.0000014853
 Iter  69:  RMS(Cart)=    0.0000002446 RMS(Int)=    0.0000014509
 Iter  70:  RMS(Cart)=    0.0000002386 RMS(Int)=    0.0000014173
 Iter  71:  RMS(Cart)=    0.0000002328 RMS(Int)=    0.0000013845
 Iter  72:  RMS(Cart)=    0.0000002271 RMS(Int)=    0.0000013525
 Iter  73:  RMS(Cart)=    0.0000002216 RMS(Int)=    0.0000013214
 Iter  74:  RMS(Cart)=    0.0000002162 RMS(Int)=    0.0000012910
 Iter  75:  RMS(Cart)=    0.0000002109 RMS(Int)=    0.0000012613
 Iter  76:  RMS(Cart)=    0.0000002058 RMS(Int)=    0.0000012323
 Iter  77:  RMS(Cart)=    0.0000002008 RMS(Int)=    0.0000012041
 Iter  78:  RMS(Cart)=    0.0000001959 RMS(Int)=    0.0000011766
 Iter  79:  RMS(Cart)=    0.0000001911 RMS(Int)=    0.0000011497
 Iter  80:  RMS(Cart)=    0.0000001865 RMS(Int)=    0.0000011235
 Iter  81:  RMS(Cart)=    0.0000001819 RMS(Int)=    0.0000010979
 Iter  82:  RMS(Cart)=    0.0000001775 RMS(Int)=    0.0000010729
 Iter  83:  RMS(Cart)=    0.0000001732 RMS(Int)=    0.0000010486
 Iter  84:  RMS(Cart)=    0.0000001690 RMS(Int)=    0.0000010248
 Iter  85:  RMS(Cart)=    0.0000001649 RMS(Int)=    0.0000010017
 Iter  86:  RMS(Cart)=    0.0000001609 RMS(Int)=    0.0000009791
 Iter  87:  RMS(Cart)=    0.0000001570 RMS(Int)=    0.0000009570
 Iter  88:  RMS(Cart)=    0.0000001532 RMS(Int)=    0.0000009355
 Iter  89:  RMS(Cart)=    0.0000001495 RMS(Int)=    0.0000009145
 Iter  90:  RMS(Cart)=    0.0000001458 RMS(Int)=    0.0000008940
 Iter  91:  RMS(Cart)=    0.0000001423 RMS(Int)=    0.0000008740
 Iter  92:  RMS(Cart)=    0.0000001388 RMS(Int)=    0.0000008545
 Iter  93:  RMS(Cart)=    0.0000001355 RMS(Int)=    0.0000008354
 Iter  94:  RMS(Cart)=    0.0000001322 RMS(Int)=    0.0000008169
 Iter  95:  RMS(Cart)=    0.0000001290 RMS(Int)=    0.0000007987
 Iter  96:  RMS(Cart)=    0.0000001259 RMS(Int)=    0.0000007810
 Iter  97:  RMS(Cart)=    0.0000001228 RMS(Int)=    0.0000007638
 Iter  98:  RMS(Cart)=    0.0000001199 RMS(Int)=    0.0000007469
 Iter  99:  RMS(Cart)=    0.0000001170 RMS(Int)=    0.0000007305
 RMS(Cart) too big - taking linear step, building new B-matrix and trying again
Imposing constraints:
 Iter   0:  RMS(Cart)=    0.0000475623 RMS(Int)=    0.0000280932
 Iter   1:  RMS(Cart)=    0.0000264215 RMS(Int)=    0.0000166689
 Iter   2:  RMS(Cart)=    0.0000147796 RMS(Int)=    0.0000109792
 Iter   3:  RMS(Cart)=    0.0000083684 RMS(Int)=    0.0000084087
 Iter   4:  RMS(Cart)=    0.0000048544 RMS(Int)=    0.0000073307
 Iter   5:  RMS(Cart)=    0.0000029588 RMS(Int)=    0.0000068510
 Iter   6:  RMS(Cart)=    0.0000019730 RMS(Int)=    0.0000065837
 Iter   7:  RMS(Cart)=    0.0000014875 RMS(Int)=    0.0000063892
 Iter   8:  RMS(Cart)=    0.0000012566 RMS(Int)=    0.0000062212
 Iter   9:  RMS(Cart)=    0.0000011418 RMS(Int)=    0.0000060643
 Iter  10:  RMS(Cart)=    0.0000010766 RMS(Int)=    0.0000059137
 Iter  11:  RMS(Cart)=    0.0000010328 RMS(Int)=    0.0000057677
 Iter  12:  RMS(Cart)=    0.0000009987 RMS(Int)=    0.0000056257
 Iter  13:  RMS(Cart)=    0.0000009695 RMS(Int)=    0.0000054873
 Iter  14:  RMS(Cart)=    0.0000009431 RMS(Int)=    0.0000053526
 Iter  15:  RMS(Cart)=    0.0000009183 RMS(Int)=    0.0000052213
 Iter  16:  RMS(Cart)=    0.0000008947 RMS(Int)=    0.0000050933
 Iter  17:  RMS(Cart)=    0.0000008721 RMS(Int)=    0.0000049687
 Iter  18:  RMS(Cart)=    0.0000008501 RMS(Int)=    0.0000048471
 Iter  19:  RMS(Cart)=    0.0000008289 RMS(Int)=    0.0000047287
 Iter  20:  RMS(Cart)=    0.0000008082 RMS(Int)=    0.0000046133
 Iter  21:  RMS(Cart)=    0.0000007881 RMS(Int)=    0.0000045008
 Iter  22:  RMS(Cart)=    0.0000007685 RMS(Int)=    0.0000043912
 Iter  23:  RMS(Cart)=    0.0000007494 RMS(Int)=    0.0000042843
 Iter  24:  RMS(Cart)=    0.0000007308 RMS(Int)=    0.0000041802
 Iter  25:  RMS(Cart)=    0.0000007127 RMS(Int)=    0.0000040786
 Iter  26:  RMS(Cart)=    0.0000006950 RMS(Int)=    0.0000039797
 Iter  27:  RMS(Cart)=    0.0000006778 RMS(Int)=    0.0000038832
 Iter  28:  RMS(Cart)=    0.0000006610 RMS(Int)=    0.0000037891
 Iter  29:  RMS(Cart)=    0.0000006447 RMS(Int)=    0.0000036975
 Iter  30:  RMS(Cart)=    0.0000006287 RMS(Int)=    0.0000036081
 Iter  31:  RMS(Cart)=    0.0000006132 RMS(Int)=    0.0000035210
 Iter  32:  RMS(Cart)=    0.0000005980 RMS(Int)=    0.0000034360
 Iter  33:  RMS(Cart)=    0.0000005833 RMS(Int)=    0.0000033532
 Iter  34:  RMS(Cart)=    0.0000005689 RMS(Int)=    0.0000032725
 Iter  35:  RMS(Cart)=    0.0000005548 RMS(Int)=    0.0000031938
 Iter  36:  RMS(Cart)=    0.0000005412 RMS(Int)=    0.0000031170
 Iter  37:  RMS(Cart)=    0.0000005278 RMS(Int)=    0.0000030422
 Iter  38:  RMS(Cart)=    0.0000005148 RMS(Int)=    0.0000029692
 Iter  39:  RMS(Cart)=    0.0000005021 RMS(Int)=    0.0000028981
 Iter  40:  RMS(Cart)=    0.0000004898 RMS(Int)=    0.0000028287
 Iter  41:  RMS(Cart)=    0.0000004777 RMS(Int)=    0.0000027611
 Iter  42:  RMS(Cart)=    0.0000004660 RMS(Int)=    0.0000026951
 Iter  43:  RMS(Cart)=    0.0000004545 RMS(Int)=    0.0000026308
 Iter  44:  RMS(Cart)=    0.0000004433 RMS(Int)=    0.0000025681
 Iter  45:  RMS(Cart)=    0.0000004325 RMS(Int)=    0.0000025069
 Iter  46:  RMS(Cart)=    0.0000004218 RMS(Int)=    0.0000024473
 Iter  47:  RMS(Cart)=    0.0000004115 RMS(Int)=    0.0000023891
 Iter  48:  RMS(Cart)=    0.0000004014 RMS(Int)=    0.0000023324
 Iter  49:  RMS(Cart)=    0.0000003915 RMS(Int)=    0.0000022771
 Iter  50:  RMS(Cart)=    0.0000003819 RMS(Int)=    0.0000022232
 Iter  51:  RMS(Cart)=    0.0000003726 RMS(Int)=    0.0000021706
 Iter  52:  RMS(Cart)=    0.0000003634 RMS(Int)=    0.0000021193
 Iter  53:  RMS(Cart)=    0.0000003545 RMS(Int)=    0.0000020692
 Iter  54:  RMS(Cart)=    0.0000003458 RMS(Int)=    0.0000020204
 Iter  55:  RMS(Cart)=    0.0000003374 RMS(Int)=    0.0000019728
 Iter  56:  RMS(Cart)=    0.0000003291 RMS(Int)=    0.0000019264
 Iter  57:  RMS(Cart)=    0.0000003211 RMS(Int)=    0.0000018811
 Iter  58:  RMS(Cart)=    0.0000003132 RMS(Int)=    0.0000018370
 Iter  59:  RMS(Cart)=    0.0000003055 RMS(Int)=    0.0000017939
 Iter  60:  RMS(Cart)=    0.0000002981 RMS(Int)=    0.0000017519
 Iter  61:  RMS(Cart)=    0.0000002908 RMS(Int)=    0.0000017109
 Iter  62:  RMS(Cart)=    0.0000002837 RMS(Int)=    0.0000016709
 Iter  63:  RMS(Cart)=    0.0000002767 RMS(Int)=    0.0000016320
 Iter  64:  RMS(Cart)=    0.0000002700 RMS(Int)=    0.0000015939
 Iter  65:  RMS(Cart)=    0.0000002634 RMS(Int)=    0.0000015568
 Iter  66:  RMS(Cart)=    0.0000002570 RMS(Int)=    0.0000015207
 Iter  67:  RMS(Cart)=    0.0000002507 RMS(Int)=    0.0000014854
 Iter  68:  RMS(Cart)=    0.0000002446 RMS(Int)=    0.0000014509
 Iter  69:  RMS(Cart)=    0.0000002386 RMS(Int)=    0.0000014173
 Iter  70:  RMS(Cart)=    0.0000002328 RMS(Int)=    0.0000013846
 Iter  71:  RMS(Cart)=    0.0000002271 RMS(Int)=    0.0000013526
 Iter  72:  RMS(Cart)=    0.0000002216 RMS(Int)=    0.0000013215
 Iter  73:  RMS(Cart)=    0.0000002162 RMS(Int)=    0.0000012910
 Iter  74:  RMS(Cart)=    0.0000002109 RMS(Int)=    0.0000012614
 Iter  75:  RMS(Cart)=    0.0000002058 RMS(Int)=    0.0000012324
 Iter  76:  RMS(Cart)=    0.0000002008 RMS(Int)=    0.0000012042
 Iter  77:  RMS(Cart)=    0.0000001959 RMS(Int)=    0.0000011766
 Iter  78:  RMS(Cart)=    0.0000001911 RMS(Int)=    0.0000011498
 Iter  79:  RMS(Cart)=    0.0000001865 RMS(Int)=    0.0000011235
 Iter  80:  RMS(Cart)=    0.0000001819 RMS(Int)=    0.0000010980
 Iter  81:  RMS(Cart)=    0.0000001775 RMS(Int)=    0.0000010730
 Iter  82:  RMS(Cart)=    0.0000001732 RMS(Int)=    0.0000010487
 Iter  83:  RMS(Cart)=    0.0000001690 RMS(Int)=    0.0000010249
 Iter  84:  RMS(Cart)=    0.0000001649 RMS(Int)=    0.0000010017
 Iter  85:  RMS(Cart)=    0.0000001609 RMS(Int)=    0.0000009791
CONVERGED
Small eigenvalue found = 1.224e-02
Small eigenvalue found = 2.336e-02
The first mode is                       ....   80
The number of degrees of freedom        ....   69
Storing new coordinates                 .... done

    -----------------------------------------------------------------
                    Redundant Internal Coordinates


    -----------------------------------------------------------------
         Definition                    Initial Value    Approx d2E/dq
    -----------------------------------------------------------------
      1. B(C   1,C   0)                  1.5333         0.369027   
      2. B(C   2,C   1)                  1.5471         0.350825   
      3. B(C   3,C   2)                  1.5492         0.348147   
      4. B(O   4,C   0)                  1.4668         0.422031   
      5. B(O   4,C   3)                  1.4789         0.403699   
      6. B(H   5,C   0)                  1.0919         0.357632   
      7. B(H   6,C   1)                  1.0958         0.352561   
      8. B(H   7,C   1)                  1.0951         0.353431   
      9. B(H   8,C   2)                  1.0945         0.354166   
     10. B(H   9,C   2)                  1.0966         0.351438   
     11. B(H  10,C   3)                  1.0954         0.353010   
     12. B(H  11,C   3)                  1.0939         0.354989   
     13. B(H  13,C  12)                  1.1016         0.345135   
     14. B(C  14,C  12)                  1.5331         0.369370   
     15. B(C  15,C  14)                  1.5460         0.352181   
     16. B(C  16,C  15)                  1.5493         0.348000   
     17. B(O  17,C  12)                  1.4675         0.420941   
     18. B(O  17,C  16)                  1.4800         0.402000   
     19. B(H  18,C  12)                  1.0903         0.359669   
     20. B(O  19,C   0)                  1.4375         0.470069   
     21. B(O  19,C  14)                  1.4361         0.472389   
     22. B(H  20,C  14)                  1.0958         0.352515   
     23. B(H  21,C  15)                  1.0951         0.353382   
     24. B(H  22,C  15)                  1.0979         0.349773   
     25. B(H  23,C  16)                  1.0957         0.352703   
     26. B(H  24,C  16)                  1.0941         0.354742   
     27. A(C   1,C   0,H   5)          114.4376         0.323302   
     28. A(H   5,C   0,O  19)          109.1555         0.334458   
     29. A(O   4,C   0,H   5)          107.0214         0.328541   
     30. A(C   1,C   0,O   4)          104.2488         0.367935   
     31. A(O   4,C   0,O  19)          110.4634         0.381216   
     32. A(C   1,C   0,O  19)          111.3131         0.374825   
     33. A(C   2,C   1,H   7)          112.8319         0.320016   
     34. A(C   2,C   1,H   6)          110.6709         0.319888   
     35. A(C   0,C   1,H   6)          110.0677         0.322546   
     36. A(C   0,C   1,C   2)          101.6794         0.358729   
     37. A(C   0,C   1,H   7)          113.1244         0.322677   
     38. A(H   6,C   1,H   7)          108.3681         0.289027   
     39. A(C   1,C   2,H   9)          110.0800         0.319721   
     40. A(C   1,C   2,H   8)          112.8318         0.320125   
     41. A(C   3,C   2,H   8)          112.4039         0.319725   
     42. A(C   3,C   2,H   9)          110.6152         0.319321   
     43. A(H   8,C   2,H   9)          107.7728         0.288977   
     44. A(C   1,C   2,C   3)          103.1267         0.355196   
     45. A(C   2,C   3,H  10)          112.5253         0.319554   
     46. A(C   2,C   3,O   4)          106.5277         0.361529   
     47. A(O   4,C   3,H  10)          109.1298         0.325449   
     48. A(C   2,C   3,H  11)          112.4566         0.319846   
     49. A(O   4,C   3,H  11)          107.1237         0.325748   
     50. A(H  10,C   3,H  11)          108.8728         0.289284   
     51. A(C   0,O   4,C   3)          108.3145         0.371320   
     52. A(H  13,C  12,C  14)          111.3667         0.321473   
     53. A(H  13,C  12,O  17)          110.3962         0.326482   
     54. A(C  14,C  12,O  17)          104.2249         0.367831   
     55. A(H  13,C  12,H  18)          109.1338         0.288856   
     56. A(O  17,C  12,H  18)          107.0067         0.328709   
     57. A(C  14,C  12,H  18)          114.5034         0.323653   
     58. A(C  12,C  14,O  19)          110.0784         0.375204   
     59. A(C  15,C  14,O  19)          110.7063         0.372133   
     60. A(C  12,C  14,H  20)          113.0741         0.322588   
     61. A(C  15,C  14,H  20)          112.7626         0.320083   
     62. A(O  19,C  14,H  20)          108.3969         0.333931   
     63. A(C  12,C  14,C  15)          101.7257         0.359021   
     64. A(C  14,C  15,H  21)          112.8642         0.320211   
     65. A(C  16,C  15,H  21)          112.3954         0.319587   
     66. A(C  14,C  15,H  22)          110.1646         0.319674   
     67. A(C  16,C  15,H  22)          110.5603         0.319052   
     68. A(C  14,C  15,C  16)          103.1641         0.355403   
     69. A(H  21,C  15,H  22)          107.6885         0.288662   
     70. A(C  15,C  16,H  23)          112.5887         0.319487   
     71. A(H  23,C  16,H  24)          108.9115         0.289213   
     72. A(O  17,C  16,H  23)          109.1106         0.325176   
     73. A(C  15,C  16,H  24)          112.4548         0.319788   
     74. A(O  17,C  16,H  24)          107.0797         0.325485   
     75. A(C  15,C  16,O  17)          106.4819         0.361243   
     76. A(C  12,O  17,C  16)          108.2955         0.370886   
     77. A(C   0,O  19,C  14)          114.3319         0.388767   
     78. D(C   2,C   1,C   0,H   5)   -156.5746         0.010890   
     79. D(H   7,C   1,C   0,O   4)   -161.2882         0.010890   
     80. D(H   7,C   1,C   0,H   5)     82.1517         0.010890   
     81. D(H   6,C   1,C   0,O   4)     77.3259         0.010890   
     82. D(C   2,C   1,C   0,O  19)     79.0807         0.010890   
     83. D(C   2,C   1,C   0,O   4)    -40.0146         0.010890 C 
     84. D(H   6,C   1,C   0,O  19)   -163.5788         0.010890   
     85. D(H   7,C   1,C   0,O  19)    -42.1929         0.010890   
     86. D(H   6,C   1,C   0,H   5)    -39.2342         0.010890   
     87. D(H   9,C   2,C   1,H   7)     38.4578         0.009912   
     88. D(C   3,C   2,C   1,H   7)    156.5039         0.009912   
     89. D(H   8,C   2,C   1,H   7)    -81.9752         0.009912   
     90. D(H   8,C   2,C   1,C   0)    156.5478         0.009912   
     91. D(H   9,C   2,C   1,H   6)    160.0776         0.009912   
     92. D(C   3,C   2,C   1,H   6)    -81.8763         0.009912   
     93. D(H   9,C   2,C   1,C   0)    -83.0192         0.009912   
     94. D(H   8,C   2,C   1,H   6)     39.6446         0.009912   
     95. D(C   3,C   2,C   1,C   0)     35.0269         0.009912 C 
     96. D(H  10,C   3,C   2,H   9)    -20.0727         0.009774   
     97. D(O   4,C   3,C   2,H   9)     99.4739         0.009774   
     98. D(H  11,C   3,C   2,C   1)     98.8667         0.009774   
     99. D(H  10,C   3,C   2,C   1)   -137.7433         0.009774   
    100. D(O   4,C   3,C   2,C   1)    -18.1967         0.009774 C 
    101. D(H  11,C   3,C   2,H   8)    -22.9433         0.009774   
    102. D(H  11,C   3,C   2,H   9)   -143.4628         0.009774   
    103. D(H  10,C   3,C   2,H   8)    100.4468         0.009774   
    104. D(O   4,C   3,C   2,H   8)   -140.0067         0.009774   
    105. D(C   3,O   4,C   0,H   5)    151.2015         0.014035   
    106. D(C   3,O   4,C   0,C   1)     29.5919         0.014035 C 
    107. D(C   0,O   4,C   3,C   2)     -6.8731         0.012866 C 
    108. D(C   3,O   4,C   0,O  19)    -90.0793         0.014035   
    109. D(C   0,O   4,C   3,H  10)    114.8547         0.012866   
    110. D(C   0,O   4,C   3,H  11)   -127.4272         0.012866   
    111. D(C  15,C  14,C  12,H  13)     79.0022         0.010909   
    112. D(C  15,C  14,C  12,O  17)    -40.0263         0.010909 C 
    113. D(C  15,C  14,C  12,H  18)   -156.5870         0.010909   
    114. D(O  19,C  14,C  12,H  13)   -163.5882         0.010909   
    115. D(O  19,C  14,C  12,O  17)     77.3833         0.010909   
    116. D(O  19,C  14,C  12,H  18)    -39.1774         0.010909   
    117. D(H  20,C  14,C  12,H  13)    -42.1921         0.010909   
    118. D(H  20,C  14,C  12,O  17)   -161.2206         0.010909   
    119. D(H  20,C  14,C  12,H  18)     82.2187         0.010909   
    120. D(C  16,C  15,C  14,C  12)     35.0567         0.009983 C 
    121. D(C  16,C  15,C  14,O  19)    -81.8983         0.009983   
    122. D(C  16,C  15,C  14,H  20)    156.4676         0.009983   
    123. D(H  21,C  15,C  14,C  12)    156.6085         0.009983   
    124. D(H  21,C  15,C  14,O  19)     39.6534         0.009983   
    125. D(H  21,C  15,C  14,H  20)    -81.9806         0.009983   
    126. D(H  22,C  15,C  14,C  12)    -82.9848         0.009983   
    127. D(H  22,C  15,C  14,O  19)    160.0602         0.009983   
    128. D(H  22,C  15,C  14,H  20)     38.4261         0.009983   
    129. D(O  17,C  16,C  15,C  14)    -18.1996         0.009766 C 
    130. D(H  24,C  16,C  15,H  21)    -23.0867         0.009766   
    131. D(O  17,C  16,C  15,H  22)     99.5645         0.009766   
    132. D(H  23,C  16,C  15,C  14)   -137.7297         0.009766   
    133. D(H  23,C  16,C  15,H  21)    100.4022         0.009766   
    134. D(H  23,C  16,C  15,H  22)    -19.9655         0.009766   
    135. D(O  17,C  16,C  15,H  21)   -140.0677         0.009766   
    136. D(H  24,C  16,C  15,C  14)     98.7814         0.009766   
    137. D(H  24,C  16,C  15,H  22)   -143.4545         0.009766   
    138. D(C  16,O  17,C  12,H  13)    -90.1085         0.013964   
    139. D(C  16,O  17,C  12,C  14)     29.5782         0.013964 C 
    140. D(C  16,O  17,C  12,H  18)    151.2442         0.013964   
    141. D(C  12,O  17,C  16,C  15)     -6.8729         0.012761 C 
    142. D(C  12,O  17,C  16,H  23)    114.8932         0.012761   
    143. D(C  12,O  17,C  16,H  24)   -127.3774         0.012761   
    144. D(C  14,O  19,C   0,C   1)     79.6856         0.017417   
    145. D(C  14,O  19,C   0,O   4)   -165.0000         0.017417 C 
    146. D(C  14,O  19,C   0,H   5)    -47.5882         0.017417   
    147. D(C   0,O  19,C  14,C  12)     -0.0000         0.017593 C 
    148. D(C   0,O  19,C  14,C  15)    111.6838         0.017593   
    149. D(C   0,O  19,C  14,H  20)   -124.1476         0.017593   
    -----------------------------------------------------------------

Number of atoms                         .... 25
Number of degrees of freedom            .... 149

         *************************************************************
         *                GEOMETRY OPTIMIZATION CYCLE   1            *
         *************************************************************
---------------------------------
CARTESIAN COORDINATES (ANGSTROEM)
---------------------------------
  C    -21.047869   26.221992   46.250958
  C    -20.361036   27.558101   45.944030
  C    -20.329114   28.222039   47.341068
  C    -20.109960   27.022008   48.295993
  O    -20.472808   25.807010   47.534932
  H    -20.832770   25.428078   45.532893
  H    -19.344017   27.382247   45.576012
  H    -20.898117   28.157076   45.201069
  H    -19.543210   28.978134   47.434107
  H    -21.289174   28.709907   47.548100
  H    -20.732963   27.081876   49.195000
  H    -19.063944   26.913122   48.596981
  C    -22.163914   26.333848   43.951971
  H    -22.608887   26.669897   43.001975
  C    -23.162884   26.450983   45.108985
  C    -24.039017   25.195084   44.895995
  C    -23.029162   24.145956   44.366992
  O    -21.849069   24.901805   43.890967
  H    -21.222848   26.860735   44.111956
  O    -22.471884   26.380847   46.365977
  H    -23.741825   27.381021   45.084025
  H    -24.541033   24.866136   45.812006
  H    -24.814010   25.397180   44.145013
  H    -23.433250   23.553000   43.539003
  H    -22.681236   23.467919   45.151993

----------------------------
CARTESIAN COORDINATES (A.U.)
----------------------------
  NO LB      ZA    FRAG     MASS         X           Y           Z
   0 C     6.0000    0    12.011  -39.774708   49.552384   87.401644
   1 C     6.0000    0    12.011  -38.476782   52.077264   86.821635
   2 C     6.0000    0    12.011  -38.416459   53.331924   89.461654
   3 C     6.0000    0    12.011  -38.002316   51.064194   91.266200
   4 O     8.0000    0    15.999  -38.688000   48.768181   89.828002
   5 H     1.0000    0     1.008  -39.368230   48.052104   86.044697
   6 H     1.0000    0     1.008  -36.554895   51.744948   86.126181
   7 H     1.0000    0     1.008  -39.491717   53.209163   85.417641
   8 H     1.0000    0     1.008  -36.931315   54.760736   89.637471
   9 H     1.0000    0     1.008  -40.230709   54.253862   89.852888
  10 H     1.0000    0     1.008  -39.179621   51.177328   92.965077
  11 H     1.0000    0     1.008  -36.025634   50.858429   91.834984
  12 C     6.0000    0    12.011  -41.883727   49.763761   83.057187
  13 H     1.0000    0     1.008  -42.724605   50.398802   81.261957
  14 C     6.0000    0    12.011  -43.771508   49.985114   85.243627
  15 C     6.0000    0    12.011  -45.427159   47.611809   84.841136
  16 C     6.0000    0    12.011  -43.518810   45.629244   83.841464
  17 O     8.0000    0    15.999  -41.288757   47.057591   82.941908
  18 H     1.0000    0     1.008  -40.105370   50.759432   83.359516
  19 O     8.0000    0    15.999  -42.465706   49.852575   87.618998
  20 H     1.0000    0     1.008  -44.865547   51.742631   85.196459
  21 H     1.0000    0     1.008  -46.375831   46.990188   86.572144
  22 H     1.0000    0     1.008  -46.891682   47.993714   83.421985
  23 H     1.0000    0     1.008  -44.282425   44.508720   82.276792
  24 H     1.0000    0     1.008  -42.861325   44.347940   85.324900

--------------------------------
INTERNAL COORDINATES (ANGSTROEM)
--------------------------------
 C      0   0   0     0.000000000000     0.00000000     0.00000000
 C      1   0   0     1.533334275362     0.00000000     0.00000000
 C      2   1   0     1.547103422529   101.67907390     0.00000000
 C      3   2   1     1.549188819996   103.12737509    35.02687180
 O      1   2   3     1.466801281701   104.24948604   319.98542309
 H      1   2   3     1.091872245274   114.43876658   203.42640133
 H      2   1   3     1.095759553917   110.06782188   117.34000099
 H      2   1   3     1.095088580892   113.12442239   238.72597460
 H      3   2   1     1.094523183857   112.83161078   156.54780790
 H      3   2   1     1.096628013503   110.07982737   276.98070077
 H      4   3   2     1.095413164062   112.52534669   222.25678475
 H      4   3   2     1.093891219455   112.45670684    98.86663270
 C      6   1   2     2.256536726934    93.01585969   285.80377216
 H     13   6   1     1.101553902449   164.79319265   145.15965150
 C     13   6   1     1.533081537297    83.46791737   312.80008694
 C     15  13   6     1.546053362598   101.72664510   262.45804503
 C     16  15  13     1.549303714576   103.16292158    35.05682579
 O     13   6   1     1.467504684831    60.70720833   202.44626148
 H     13   6   1     1.090325639431    65.30344425    73.60695323
 O     15  13   6     1.436116290556   110.07839117    19.87072156
 H     15  13   6     1.095794688799   113.07042045   141.26240206
 H     16  15  13     1.095126020146   112.86448819   156.60946678
 H     16  15  13     1.097920762168   110.16499482   277.01641019
 H     17  16  15     1.095650035367   112.58865710   222.27052321
 H     17  16  15     1.094080892805   112.45479545    98.78158076

---------------------------
INTERNAL COORDINATES (A.U.)
---------------------------
 C      0   0   0     0.000000000000     0.00000000     0.00000000
 C      1   0   0     2.897581852189     0.00000000     0.00000000
 C      2   1   0     2.923601769431   101.67907390     0.00000000
 C      3   2   1     2.927542599525   103.12737509    35.02687180
 O      1   2   3     2.771852715300   104.24948604   319.98542309
 H      1   2   3     2.063339516798   114.43876658   203.42640133
 H      2   1   3     2.070685465531   110.06782188   117.34000099
 H      2   1   3     2.069417510270   113.12442239   238.72597460
 H      3   2   1     2.068349064717   112.83161078   156.54780790
 H      3   2   1     2.072326616307   110.07982737   276.98070077
 H      4   3   2     2.070030883569   112.52534669   222.25678475
 H      4   3   2     2.067154825070   112.45670684    98.86663270
 C      6   1   2     4.264236425039    93.01585969   285.80377216
 H     13   6   1     2.081635197380   164.79319265   145.15965150
 C     13   6   1     2.897104246462    83.46791737   312.80008694
 C     15  13   6     2.921617443738   101.72664510   262.45804503
 C     16  15  13     2.927759718816   103.16292158    35.05682579
 O     13   6   1     2.773181954576    60.70720833   202.44626148
 H     13   6   1     2.060416855317    65.30344425    73.60695323
 O     15  13   6     2.713866485614   110.07839117    19.87072156
 H     15  13   6     2.070751860835   113.07042045   141.26240206
 H     16  15  13     2.069488260206   112.86448819   156.60946678
 H     16  15  13     2.074769557244   110.16499482   277.01641019
 H     17  16  15     2.070478505465   112.58865710   222.27052321
 H     17  16  15     2.067513255757   112.45479545    98.78158076

---------------------
BASIS SET INFORMATION
---------------------
There are 3 groups of distinct atoms

 Group   1 Type C   : 10s4p contracted to 3s2p pattern {631/31}
 Group   2 Type O   : 10s4p contracted to 3s2p pattern {631/31}
 Group   3 Type H   : 4s contracted to 2s pattern {31}

Atom   0C    basis set group =>   1
Atom   1C    basis set group =>   1
Atom   2C    basis set group =>   1
Atom   3C    basis set group =>   1
Atom   4O    basis set group =>   2
Atom   5H    basis set group =>   3
Atom   6H    basis set group =>   3
Atom   7H    basis set group =>   3
Atom   8H    basis set group =>   3
Atom   9H    basis set group =>   3
Atom  10H    basis set group =>   3
Atom  11H    basis set group =>   3
Atom  12C    basis set group =>   1
Atom  13H    basis set group =>   3
Atom  14C    basis set group =>   1
Atom  15C    basis set group =>   1
Atom  16C    basis set group =>   1
Atom  17O    basis set group =>   2
Atom  18H    basis set group =>   3
Atom  19O    basis set group =>   2
Atom  20H    basis set group =>   3
Atom  21H    basis set group =>   3
Atom  22H    basis set group =>   3
Atom  23H    basis set group =>   3
Atom  24H    basis set group =>   3
------------------------------------------------------------------------------
                           ORCA GTO INTEGRAL CALCULATION
------------------------------------------------------------------------------

                         BASIS SET STATISTICS AND STARTUP INFO

 # of primitive gaussian shells          ...  210
 # of primitive gaussian functions       ...  298
 # of contracted shells                  ...   83
 # of contracted basis functions         ...  127
 Highest angular momentum                ...    1
 Maximum contraction depth               ...    6
 Integral package used                   ... LIBINT
 Integral threshhold            Thresh   ...  2.500e-11
 Primitive cut-off              TCut     ...  2.500e-12


------------------------------ INTEGRAL EVALUATION ----------------------------


 * One electron integrals 
 Pre-screening matrix                    ... done
 Shell pair data                         ... done (   0.005 sec)

-------------------------------------------------------------------------------
                                 ORCA SCF
-------------------------------------------------------------------------------

------------
SCF SETTINGS
------------
Hamiltonian:
 Density Functional     Method          .... DFT(GTOs)
 Exchange Functional    Exchange        .... B88
   X-Alpha parameter    XAlpha          ....  0.666667
   Becke's b parameter  XBeta           ....  0.004200
 Correlation Functional Correlation     .... LYP
 LDA part of GGA corr.  LDAOpt          .... VWN-5
 Gradients option       PostSCFGGA      .... off
 Hybrid DFT is turned on
   Fraction HF Exchange ScalHFX         ....  0.200000
   Scaling of DF-GGA-X  ScalDFX         ....  0.720000
   Scaling of DF-GGA-C  ScalDFC         ....  0.810000
   Scaling of DF-LDA-C  ScalLDAC        ....  1.000000
   Perturbative correction              ....  0.000000
   Density functional embedding theory  .... OFF
   NL short-range parameter             ....  4.800000


General Settings:
 Integral files         IntName         .... ensemble_195_0
 Hartree-Fock type      HFTyp           .... RHF
 Total Charge           Charge          ....    0
 Multiplicity           Mult            ....    1
 Number of Electrons    NEL             ....   86
 Basis Dimension        Dim             ....  127
 Nuclear Repulsion      ENuc            ....    692.1332723778 Eh

Convergence Acceleration:
 DIIS                   CNVDIIS         .... on
   Start iteration      DIISMaxIt       ....    12
   Startup error        DIISStart       ....  0.200000
   # of expansion vecs  DIISMaxEq       ....     5
   Bias factor          DIISBfac        ....   1.050
   Max. coefficient     DIISMaxC        ....  10.000
 Newton-Raphson         CNVNR           .... off
 SOSCF                  CNVSOSCF        .... on
   Start iteration      SOSCFMaxIt      ....   150
   Startup grad/error   SOSCFStart      ....  0.003300
 Level Shifting         CNVShift        .... on
   Level shift para.    LevelShift      ....    0.2500
   Turn off err/grad.   ShiftErr        ....    0.0010
 Zerner damping         CNVZerner       .... off
 Static damping         CNVDamp         .... on
   Fraction old density DampFac         ....    0.7000
   Max. Damping (<1)    DampMax         ....    0.9800
   Min. Damping (>=0)   DampMin         ....    0.0000
   Turn off err/grad.   DampErr         ....    0.1000
 Fernandez-Rico         CNVRico         .... off

SCF Procedure:
 Maximum # iterations   MaxIter         ....   125
 SCF integral mode      SCFMode         .... Direct
   Integral package                     .... LIBINT
 Reset frequency        DirectResetFreq ....    20
 Integral Threshold     Thresh          ....  2.500e-11 Eh
 Primitive CutOff       TCut            ....  2.500e-12 Eh

Convergence Tolerance:
 Convergence Check Mode ConvCheckMode   .... Total+1el-Energy
 Convergence forced     ConvForced      .... 0
 Energy Change          TolE            ....  1.000e-08 Eh
 1-El. energy change                    ....  1.000e-05 Eh
 Orbital Gradient       TolG            ....  1.000e-05
 Orbital Rotation angle TolX            ....  1.000e-05
 DIIS Error             TolErr          ....  5.000e-07


Diagonalization of the overlap matrix:
Smallest eigenvalue                        ... 3.855e-03
Time for diagonalization                   ...    0.007 sec
Threshold for overlap eigenvalues          ... 1.000e-08
Number of eigenvalues below threshold      ... 0
Time for construction of square roots      ...    0.006 sec
Total time needed                          ...    0.013 sec

-------------------
DFT GRID GENERATION
-------------------

General Integration Accuracy     IntAcc      ...  4.340
Radial Grid Type                 RadialGrid  ... Gauss-Chebyshev
Angular Grid (max. acc.)         AngularGrid ... Lebedev-110
Angular grid pruning method      GridPruning ... 3 (G Style)
Weight generation scheme         WeightScheme... Becke
Basis function cutoff            BFCut       ...    1.0000e-11
Integration weight cutoff        WCut        ...    1.0000e-14
Grids for H and He will be reduced by one unit

# of grid points (after initial pruning)     ...  29512 (   0.0 sec)
# of grid points (after weights+screening)   ...  26569 (   0.4 sec)
nearest neighbour list constructed           ...    0.0 sec
Grid point re-assignment to atoms done       ...    0.0 sec
Grid point division into batches done        ...    0.1 sec
Reduced shell lists constructed in    0.6 sec

Total number of grid points                  ...    26569
Total number of batches                      ...      426
Average number of points per batch           ...       62
Average number of grid points per atom       ...     1063
Average number of shells per batch           ...    56.47 (68.04%)
Average number of basis functions per batch  ...    91.24 (71.85%)
Average number of large shells per batch     ...    41.82 (74.06%)
Average number of large basis fcns per batch ...    69.11 (75.74%)
Maximum spatial batch extension              ...  23.97, 19.47, 19.49 au
Average spatial batch extension              ...   3.54,  3.56,  3.43 au

Time for grid setup =    0.995 sec

------------------------------
INITIAL GUESS: MODEL POTENTIAL
------------------------------
Loading Hartree-Fock densities                     ... done
Calculating cut-offs                               ... done
Setting up the integral package                    ... done
Initializing the effective Hamiltonian             ... done
Starting the Coulomb interaction                   ... done (   0.5 sec)
Reading the grid                                   ... done
Mapping shells                                     ... done
Starting the XC term evaluation                    ... done (   0.6 sec)
  promolecular density results
     # of electrons  =     85.994777616
     EX              =    -69.874843438
     EC              =     -2.917454538
     EX+EC           =    -72.792297976
Transforming the Hamiltonian                       ... done (   0.0 sec)
Diagonalizing the Hamiltonian                      ... done (   0.0 sec)
Back transforming the eigenvectors                 ... done (   0.0 sec)
Now organizing SCF variables                       ... done
                      ------------------
                      INITIAL GUESS DONE (   2.4 sec)
                      ------------------
--------------
SCF ITERATIONS
--------------
ITER       Energy         Delta-E        Max-DP      RMS-DP      [F,P]     Damp
               ***  Starting incremental Fock matrix formation  ***
  0   -538.1745958695   0.000000000000 0.06090550  0.00316623  0.1874392 0.7000
  1   -538.2832350910  -0.108639221527 0.03436562  0.00224371  0.0798191 0.7000
                               ***Turning on DIIS***
  2   -538.3261157503  -0.042880659247 0.05690422  0.00371331  0.0305165 0.0000
  3   -538.3939901621  -0.067874411840 0.02399428  0.00152928  0.0403759 0.0000
  4   -538.4088327352  -0.014842573095 0.00842128  0.00043766  0.0077903 0.0000
  5   -538.4094240698  -0.000591334641 0.00292911  0.00014665  0.0041782 0.0000
                      *** Initiating the SOSCF procedure ***
                           *** Shutting down DIIS ***
                      *** Re-Reading the Fockian *** 
                      *** Removing any level shift *** 
ITER      Energy       Delta-E        Grad      Rot      Max-DP    RMS-DP
  6   -538.40949905  -0.0000749849  0.000153  0.000153  0.000865  0.000061
               *** Restarting incremental Fock matrix formation ***
  7   -538.40950141  -0.0000023537  0.000081  0.000105  0.000608  0.000026
  8   -538.40950073   0.0000006812  0.000121  0.000068  0.000410  0.000016
  9   -538.40950215  -0.0000014212  0.000015  0.000026  0.000117  0.000005
 10   -538.40950213   0.0000000188  0.000020  0.000015  0.000066  0.000003
                  ***Gradient check signals convergence***
              ***Rediagonalizing the Fockian in SOSCF/NRSCF***

               *****************************************************
               *                     SUCCESS                       *
               *           SCF CONVERGED AFTER  11 CYCLES          *
               *****************************************************

Setting up the final grid:

General Integration Accuracy     IntAcc      ...  4.670
Radial Grid Type                 RadialGrid  ... Gauss-Chebyshev
Angular Grid (max. acc.)         AngularGrid ... Lebedev-302
Angular grid pruning method      GridPruning ... 3 (G Style)
Weight generation scheme         WeightScheme... Becke
Basis function cutoff            BFCut       ...    1.0000e-11
Integration weight cutoff        WCut        ...    1.0000e-14
Grids for H and He will be reduced by one unit

# of grid points (after initial pruning)     ... 115848 (   0.1 sec)
# of grid points (after weights+screening)   ... 102259 (   1.5 sec)
nearest neighbour list constructed           ...    0.0 sec
Grid point re-assignment to atoms done       ...    0.1 sec
Grid point division into batches done        ...    0.8 sec
Reduced shell lists constructed in    2.7 sec

Total number of grid points                  ...   102259
Total number of batches                      ...     1611
Average number of points per batch           ...       63
Average number of grid points per atom       ...     4090
Average number of shells per batch           ...    51.82 (62.44%)
Average number of basis functions per batch  ...    84.01 (66.15%)
Average number of large shells per batch     ...    37.40 (72.16%)
Average number of large basis fcns per batch ...    62.05 (73.86%)
Maximum spatial batch extension              ...  18.70, 21.36, 17.31 au
Average spatial batch extension              ...   2.25,  2.29,  2.25 au

Final grid set up in    4.3 sec
Final integration                            ... done (   2.5 sec)
Change in XC energy                          ...    -0.000383509
Integrated number of electrons               ...    86.000166877
Previous integrated no of electrons          ...    86.000340357

----------------
TOTAL SCF ENERGY
----------------

Total Energy       :         -538.40988567 Eh          -14650.87783 eV

Components:
Nuclear Repulsion  :          692.13327238 Eh           18833.90384 eV
Electronic Energy  :        -1230.54315805 Eh          -33484.78166 eV
One Electron Energy:        -2106.75420940 Eh          -57327.69652 eV
Two Electron Energy:          876.21105135 Eh           23842.91486 eV

Virial components:
Potential Energy   :        -1074.28928128 Eh          -29232.89752 eV
Kinetic Energy     :          535.87939560 Eh           14582.01969 eV
Virial Ratio       :            2.00472213


DFT components:
N(Alpha)           :       43.000083438282 electrons
N(Beta)            :       43.000083438282 electrons
N(Total)           :       86.000166876564 electrons
E(X)               :      -56.511895023266 Eh       
E(C)               :       -3.430225880677 Eh       
E(XC)              :      -59.942120903943 Eh       
DFET-embed. en.    :        0.000000000000 Eh       

---------------
SCF CONVERGENCE
---------------

  Last Energy change         ...   -3.5542e-08  Tolerance :   1.0000e-08
  Last MAX-Density change    ...    9.8225e-06  Tolerance :   1.0000e-07
  Last RMS-Density change    ...    3.1849e-07  Tolerance :   5.0000e-09
  Last Orbital Gradient      ...    1.3523e-06  Tolerance :   1.0000e-05
  Last Orbital Rotation      ...    2.2405e-06  Tolerance :   1.0000e-05

             **** THE GBW FILE WAS UPDATED (ensemble_195_0.gbw) ****
             **** DENSITY FILE WAS UPDATED (ensemble_195_0.scfp) ****
             **** ENERGY FILE WAS UPDATED (ensemble_195_0.en.tmp) ****
             **** THE GBW FILE WAS UPDATED (ensemble_195_0.gbw) ****
             **** DENSITY FILE WAS UPDATED (ensemble_195_0.scfp) ****
----------------
ORBITAL ENERGIES
----------------

  NO   OCC          E(Eh)            E(eV) 
   0   2.0000     -19.143593      -520.9237 
   1   2.0000     -19.138559      -520.7867 
   2   2.0000     -19.134783      -520.6839 
   3   2.0000     -10.264565      -279.3130 
   4   2.0000     -10.245623      -278.7976 
   5   2.0000     -10.230274      -278.3799 
   6   2.0000     -10.227383      -278.3012 
   7   2.0000     -10.217788      -278.0402 
   8   2.0000     -10.188823      -277.2520 
   9   2.0000     -10.183390      -277.1041 
  10   2.0000     -10.182324      -277.0751 
  11   2.0000      -1.057332       -28.7715 
  12   2.0000      -1.022277       -27.8176 
  13   2.0000      -0.992823       -27.0161 
  14   2.0000      -0.789038       -21.4708 
  15   2.0000      -0.778096       -21.1731 
  16   2.0000      -0.743941       -20.2437 
  17   2.0000      -0.724354       -19.7107 
  18   2.0000      -0.620779       -16.8923 
  19   2.0000      -0.608009       -16.5448 
  20   2.0000      -0.591423       -16.0935 
  21   2.0000      -0.564333       -15.3563 
  22   2.0000      -0.529651       -14.4125 
  23   2.0000      -0.505295       -13.7498 
  24   2.0000      -0.489216       -13.3123 
  25   2.0000      -0.481399       -13.0995 
  26   2.0000      -0.456292       -12.4163 
  27   2.0000      -0.448367       -12.2007 
  28   2.0000      -0.422173       -11.4879 
  29   2.0000      -0.411310       -11.1923 
  30   2.0000      -0.405750       -11.0410 
  31   2.0000      -0.389351       -10.5948 
  32   2.0000      -0.381839       -10.3904 
  33   2.0000      -0.372941       -10.1482 
  34   2.0000      -0.358411        -9.7529 
  35   2.0000      -0.348114        -9.4727 
  36   2.0000      -0.345925        -9.4131 
  37   2.0000      -0.323191        -8.7945 
  38   2.0000      -0.308842        -8.4040 
  39   2.0000      -0.298954        -8.1349 
  40   2.0000      -0.253591        -6.9006 
  41   2.0000      -0.251900        -6.8545 
  42   2.0000      -0.240110        -6.5337 
  43   0.0000       0.080194         2.1822 
  44   0.0000       0.087821         2.3897 
  45   0.0000       0.103222         2.8088 
  46   0.0000       0.106982         2.9111 
  47   0.0000       0.116363         3.1664 
  48   0.0000       0.121220         3.2986 
  49   0.0000       0.131761         3.5854 
  50   0.0000       0.137966         3.7542 
  51   0.0000       0.148060         4.0289 
  52   0.0000       0.154444         4.2026 
  53   0.0000       0.157503         4.2859 
  54   0.0000       0.164236         4.4691 
  55   0.0000       0.169403         4.6097 
  56   0.0000       0.174407         4.7459 
  57   0.0000       0.195352         5.3158 
  58   0.0000       0.206211         5.6113 
  59   0.0000       0.213197         5.8014 
  60   0.0000       0.227524         6.1912 
  61   0.0000       0.231559         6.3010 
  62   0.0000       0.236886         6.4460 
  63   0.0000       0.254042         6.9128 
  64   0.0000       0.270658         7.3650 
  65   0.0000       0.281595         7.6626 
  66   0.0000       0.290312         7.8998 
  67   0.0000       0.293925         7.9981 
  68   0.0000       0.332775         9.0553 
  69   0.0000       0.531268        14.4565 
  70   0.0000       0.546558        14.8726 
  71   0.0000       0.553741        15.0681 
  72   0.0000       0.556781        15.1508 
  73   0.0000       0.564275        15.3547 
  74   0.0000       0.575729        15.6664 
  75   0.0000       0.576269        15.6811 
  76   0.0000       0.595304        16.1990 
  77   0.0000       0.606465        16.5027 
  78   0.0000       0.615012        16.7353 
  79   0.0000       0.626061        17.0360 
  80   0.0000       0.642554        17.4848 
  81   0.0000       0.654317        17.8049 
  82   0.0000       0.660566        17.9749 
  83   0.0000       0.678127        18.4528 
  84   0.0000       0.687593        18.7104 
  85   0.0000       0.721294        19.6274 
  86   0.0000       0.772627        21.0243 
  87   0.0000       0.795775        21.6541 
  88   0.0000       0.821950        22.3664 
  89   0.0000       0.828163        22.5355 
  90   0.0000       0.840241        22.8641 
  91   0.0000       0.858064        23.3491 
  92   0.0000       0.875023        23.8106 
  93   0.0000       0.885441        24.0941 
  94   0.0000       0.894326        24.3358 
  95   0.0000       0.902454        24.5570 
  96   0.0000       0.909051        24.7365 
  97   0.0000       0.911239        24.7961 
  98   0.0000       0.926966        25.2240 
  99   0.0000       0.934572        25.4310 
 100   0.0000       0.945351        25.7243 
 101   0.0000       0.949945        25.8493 
 102   0.0000       0.969412        26.3790 
 103   0.0000       0.971169        26.4269 
 104   0.0000       0.988876        26.9087 
 105   0.0000       1.013511        27.5790 
 106   0.0000       1.028680        27.9918 
 107   0.0000       1.062826        28.9210 
 108   0.0000       1.114463        30.3261 
 109   0.0000       1.145429        31.1687 
 110   0.0000       1.174141        31.9500 
 111   0.0000       1.194809        32.5124 
 112   0.0000       1.271564        34.6010 
 113   0.0000       1.286517        35.0079 
 114   0.0000       1.326016        36.0827 
 115   0.0000       1.380364        37.5616 
 116   0.0000       1.393436        37.9173 
 117   0.0000       1.433102        38.9967 
 118   0.0000       1.444905        39.3179 
 119   0.0000       1.494365        40.6637 
 120   0.0000       1.607890        43.7529 
 121   0.0000       1.622992        44.1639 
 122   0.0000       1.702630        46.3309 
 123   0.0000       1.788654        48.6717 
 124   0.0000       2.061993        56.1097 
 125   0.0000       2.087213        56.7959 
 126   0.0000       2.208105        60.0856 

                    ********************************
                    * MULLIKEN POPULATION ANALYSIS *
                    ********************************

-----------------------
MULLIKEN ATOMIC CHARGES
-----------------------
   0 C :    0.272788
   1 C :   -0.282956
   2 C :   -0.301725
   3 C :    0.000500
   4 O :   -0.515359
   5 H :    0.203582
   6 H :    0.149515
   7 H :    0.142221
   8 H :    0.139219
   9 H :    0.154837
  10 H :    0.146110
  11 H :    0.137816
  12 C :   -0.079383
  13 H :    0.134344
  14 C :    0.090001
  15 C :   -0.274249
  16 C :   -0.019185
  17 O :   -0.513933
  18 H :    0.177940
  19 O :   -0.517008
  20 H :    0.142517
  21 H :    0.167148
  22 H :    0.138251
  23 H :    0.142934
  24 H :    0.164076
Sum of atomic charges:    0.0000000

--------------------------------
MULLIKEN REDUCED ORBITAL CHARGES
--------------------------------
  0 C s       :     3.222534  s :     3.222534
      pz      :     0.825941  p :     2.504678
      px      :     0.666228
      py      :     1.012509
  1 C s       :     3.309721  s :     3.309721
      pz      :     0.980641  p :     2.973235
      px      :     1.048103
      py      :     0.944491
  2 C s       :     3.316986  s :     3.316986
      pz      :     0.914192  p :     2.984740
      px      :     1.077468
      py      :     0.993079
  3 C s       :     3.259228  s :     3.259228
      pz      :     0.941043  p :     2.740272
      px      :     1.053693
      py      :     0.745536
  4 O s       :     3.954937  s :     3.954937
      pz      :     1.317422  p :     4.560422
      px      :     1.733501
      py      :     1.509500
  5 H s       :     0.796418  s :     0.796418
  6 H s       :     0.850485  s :     0.850485
  7 H s       :     0.857779  s :     0.857779
  8 H s       :     0.860781  s :     0.860781
  9 H s       :     0.845163  s :     0.845163
 10 H s       :     0.853890  s :     0.853890
 11 H s       :     0.862184  s :     0.862184
 12 C s       :     3.294737  s :     3.294737
      pz      :     1.020681  p :     2.784646
      px      :     1.040250
      py      :     0.723715
 13 H s       :     0.865656  s :     0.865656
 14 C s       :     3.243097  s :     3.243097
      pz      :     0.724466  p :     2.666902
      px      :     0.891237
      py      :     1.051199
 15 C s       :     3.310749  s :     3.310749
      pz      :     1.071294  p :     2.963501
      px      :     0.971522
      py      :     0.920684
 16 C s       :     3.267171  s :     3.267171
      pz      :     1.041368  p :     2.752013
      px      :     0.780459
      py      :     0.930186
 17 O s       :     3.939698  s :     3.939698
      pz      :     1.837435  p :     4.574235
      px      :     1.524550
      py      :     1.212250
 18 H s       :     0.822060  s :     0.822060
 19 O s       :     3.934973  s :     3.934973
      pz      :     1.456840  p :     4.582034
      px      :     1.272472
      py      :     1.852722
 20 H s       :     0.857483  s :     0.857483
 21 H s       :     0.832852  s :     0.832852
 22 H s       :     0.861749  s :     0.861749
 23 H s       :     0.857066  s :     0.857066
 24 H s       :     0.835924  s :     0.835924


                     *******************************
                     * LOEWDIN POPULATION ANALYSIS *
                     *******************************

----------------------
LOEWDIN ATOMIC CHARGES
----------------------
   0 C :    0.156679
   1 C :   -0.242047
   2 C :   -0.217639
   3 C :   -0.027258
   4 O :   -0.306747
   5 H :    0.123773
   6 H :    0.116165
   7 H :    0.111783
   8 H :    0.112627
   9 H :    0.115061
  10 H :    0.104373
  11 H :    0.099656
  12 C :   -0.070692
  13 H :    0.100382
  14 C :    0.040776
  15 C :   -0.226934
  16 C :   -0.033242
  17 O :   -0.328165
  18 H :    0.128472
  19 O :   -0.318555
  20 H :    0.105810
  21 H :    0.130266
  22 H :    0.110639
  23 H :    0.102906
  24 H :    0.111910

-------------------------------
LOEWDIN REDUCED ORBITAL CHARGES
-------------------------------
  0 C s       :     2.959430  s :     2.959430
      pz      :     0.938195  p :     2.883891
      px      :     0.849087
      py      :     1.096609
  1 C s       :     2.985401  s :     2.985401
      pz      :     1.075827  p :     3.256646
      px      :     1.113248
      py      :     1.067571
  2 C s       :     2.972055  s :     2.972055
      pz      :     1.035157  p :     3.245584
      px      :     1.129485
      py      :     1.080942
  3 C s       :     2.983250  s :     2.983250
      pz      :     1.038626  p :     3.044009
      px      :     1.117803
      py      :     0.887579
  4 O s       :     3.603260  s :     3.603260
      pz      :     1.378268  p :     4.703487
      px      :     1.766298
      py      :     1.558921
  5 H s       :     0.876227  s :     0.876227
  6 H s       :     0.883835  s :     0.883835
  7 H s       :     0.888217  s :     0.888217
  8 H s       :     0.887373  s :     0.887373
  9 H s       :     0.884939  s :     0.884939
 10 H s       :     0.895627  s :     0.895627
 11 H s       :     0.900344  s :     0.900344
 12 C s       :     2.989177  s :     2.989177
      pz      :     1.104541  p :     3.081515
      px      :     1.114629
      py      :     0.862345
 13 H s       :     0.899618  s :     0.899618
 14 C s       :     2.948271  s :     2.948271
      pz      :     0.894418  p :     3.010953
      px      :     1.017895
      py      :     1.098640
 15 C s       :     2.984355  s :     2.984355
      pz      :     1.122458  p :     3.242579
      px      :     1.077229
      py      :     1.042891
 16 C s       :     2.984477  s :     2.984477
      pz      :     1.100780  p :     3.048765
      px      :     0.912801
      py      :     1.035185
 17 O s       :     3.604760  s :     3.604760
      pz      :     1.860042  p :     4.723405
      px      :     1.577014
      py      :     1.286349
 18 H s       :     0.871528  s :     0.871528
 19 O s       :     3.570723  s :     3.570723
      pz      :     1.525404  p :     4.747833
      px      :     1.344164
      py      :     1.878265
 20 H s       :     0.894190  s :     0.894190
 21 H s       :     0.869734  s :     0.869734
 22 H s       :     0.889361  s :     0.889361
 23 H s       :     0.897094  s :     0.897094
 24 H s       :     0.888090  s :     0.888090


                      *****************************
                      * MAYER POPULATION ANALYSIS *
                      *****************************

  NA   - Mulliken gross atomic population
  ZA   - Total nuclear charge
  QA   - Mulliken gross atomic charge
  VA   - Mayer's total valence
  BVA  - Mayer's bonded valence
  FA   - Mayer's free valence

  ATOM       NA         ZA         QA         VA         BVA        FA
  0 C      5.7272     6.0000     0.2728     3.5839     3.5839     0.0000
  1 C      6.2830     6.0000    -0.2830     3.7076     3.7076     0.0000
  2 C      6.3017     6.0000    -0.3017     3.7600     3.7600    -0.0000
  3 C      5.9995     6.0000     0.0005     3.6688     3.6688    -0.0000
  4 O      8.5154     8.0000    -0.5154     1.7935     1.7935    -0.0000
  5 H      0.7964     1.0000     0.2036     0.9305     0.9305     0.0000
  6 H      0.8505     1.0000     0.1495     0.9319     0.9319     0.0000
  7 H      0.8578     1.0000     0.1422     0.9363     0.9363    -0.0000
  8 H      0.8608     1.0000     0.1392     0.9374     0.9374    -0.0000
  9 H      0.8452     1.0000     0.1548     0.9358     0.9358    -0.0000
 10 H      0.8539     1.0000     0.1461     0.9261     0.9261     0.0000
 11 H      0.8622     1.0000     0.1378     0.9288     0.9288    -0.0000
 12 C      6.0794     6.0000    -0.0794     3.6411     3.6411     0.0000
 13 H      0.8657     1.0000     0.1343     0.9315     0.9315    -0.0000
 14 C      5.9100     6.0000     0.0900     3.6457     3.6457     0.0000
 15 C      6.2742     6.0000    -0.2742     3.7086     3.7086     0.0000
 16 C      6.0192     6.0000    -0.0192     3.6486     3.6486     0.0000
 17 O      8.5139     8.0000    -0.5139     1.7841     1.7841     0.0000
 18 H      0.8221     1.0000     0.1779     0.9323     0.9323    -0.0000
 19 O      8.5170     8.0000    -0.5170     1.7105     1.7105     0.0000
 20 H      0.8575     1.0000     0.1425     0.9326     0.9326     0.0000
 21 H      0.8329     1.0000     0.1671     0.9375     0.9375     0.0000
 22 H      0.8617     1.0000     0.1383     0.9335     0.9335     0.0000
 23 H      0.8571     1.0000     0.1429     0.9275     0.9275     0.0000
 24 H      0.8359     1.0000     0.1641     0.9252     0.9252    -0.0000

  Mayer bond orders larger than 0.100000
B(  0-C ,  1-C ) :   0.9145 B(  0-C ,  4-O ) :   0.9082 B(  0-C ,  5-H ) :   0.8702 
B(  0-C , 19-O ) :   0.8179 B(  1-C ,  2-C ) :   0.9432 B(  1-C ,  6-H ) :   0.9329 
B(  1-C ,  7-H ) :   0.9259 B(  2-C ,  3-C ) :   0.9555 B(  2-C ,  8-H ) :   0.9454 
B(  2-C ,  9-H ) :   0.9468 B(  3-C ,  4-O ) :   0.8474 B(  3-C , 10-H ) :   0.9339 
B(  3-C , 11-H ) :   0.9393 B( 12-C , 13-H ) :   0.9217 B( 12-C , 14-C ) :   0.9237 
B( 12-C , 17-O ) :   0.8409 B( 12-C , 18-H ) :   0.9001 B( 14-C , 15-C ) :   0.9296 
B( 14-C , 19-O ) :   0.8475 B( 14-C , 20-H ) :   0.9260 B( 15-C , 16-C ) :   0.9440 
B( 15-C , 21-H ) :   0.9364 B( 15-C , 22-H ) :   0.9370 B( 16-C , 17-O ) :   0.8360 
B( 16-C , 23-H ) :   0.9356 B( 16-C , 24-H ) :   0.9344 

-------
TIMINGS
-------

Total SCF time: 0 days 0 hours 2 min 14 sec 

Total time                  ....     134.670 sec
Sum of individual times     ....     134.019 sec  ( 99.5%)

Fock matrix formation       ....     127.100 sec  ( 94.4%)
  XC integration            ....      10.403 sec  (  8.2% of F)
    Basis function eval.    ....       4.764 sec  ( 45.8% of XC)
    Density eval.           ....       1.857 sec  ( 17.9% of XC)
    XC-Functional eval.     ....       0.913 sec  (  8.8% of XC)
    XC-Potential eval.      ....       2.277 sec  ( 21.9% of XC)
Diagonalization             ....       0.048 sec  (  0.0%)
Density matrix formation    ....       0.007 sec  (  0.0%)
Population analysis         ....       0.035 sec  (  0.0%)
Initial guess               ....       1.450 sec  (  1.1%)
Orbital Transformation      ....       0.000 sec  (  0.0%)
Orbital Orthonormalization  ....       0.000 sec  (  0.0%)
DIIS solution               ....       0.042 sec  (  0.0%)
SOSCF solution              ....       0.022 sec  (  0.0%)
Grid generation             ....       5.313 sec  (  3.9%)

-------------------------   --------------------
FINAL SINGLE POINT ENERGY      -538.409885674126
-------------------------   --------------------

------------------------------------------------------------------------------
                         ORCA SCF GRADIENT CALCULATION
------------------------------------------------------------------------------

Gradient of the Kohn-Sham DFT energy:
Kohn-Sham wavefunction type      ... RKS
Hartree-Fock exchange scaling    ...    0.200
Number of operators              ...    1
Number of atoms                  ...   25
Basis set dimensions             ...  127
Integral neglect threshold       ... 2.5e-11
Integral primitive cutoff        ... 2.5e-12

Nuclear repulsion gradient       ... done
One Electron Gradient            ... done
Pre-screening matrix             ... done
Starting the two electron gradient:
Two electron gradient done
Exchange-correlation gradient    ... done

------------------
CARTESIAN GRADIENT
------------------

   1   C   :   -0.028880059    0.011605935   -0.015858824
   2   C   :   -0.001814392   -0.008824237   -0.012957413
   3   C   :   -0.001339095   -0.000571912   -0.002275169
   4   C   :    0.000991033   -0.003759396   -0.003158513
   5   O   :    0.013104884   -0.008969707    0.015488904
   6   H   :   -0.003377394    0.001067805   -0.007626811
   7   H   :   -0.000450218    0.001440687    0.000481958
   8   H   :   -0.003506167   -0.003374390   -0.007152829
   9   H   :   -0.000600627    0.000378790   -0.000042738
  10   H   :   -0.000475439    0.001508823    0.000701659
  11   H   :   -0.000474476    0.000437511    0.000962594
  12   H   :   -0.000567928    0.000643308    0.000463779
  13   C   :    0.008062478    0.000228743    0.020417265
  14   H   :    0.000517032    0.000883356   -0.001631661
  15   C   :    0.004563928    0.000712444    0.013968153
  16   C   :   -0.001416338    0.002830300    0.001264688
  17   C   :    0.002790618    0.002744982   -0.001472479
  18   O   :    0.004232709    0.001434399    0.006722811
  19   H   :    0.009573383    0.005731385    0.012075205
  20   O   :    0.003827162   -0.000974901   -0.020069278
  21   H   :   -0.000004221    0.000699565    0.000163364
  22   H   :   -0.002920087   -0.003051722   -0.000476038
  23   H   :   -0.001014650   -0.001584324   -0.000289068
  24   H   :   -0.000540230   -0.000575592    0.000239651
  25   H   :   -0.000281906   -0.000661850    0.000060790

Difference to translation invariance:
           :    0.0000000000   -0.0000000000   -0.0000000000

Norm of the cartesian gradient     ...    0.0604657480
RMS gradient                       ...    0.0069819832
MAX gradient                       ...    0.0288800595

-------
TIMINGS
-------

Total SCF gradient time            ...       44.688 sec

One electron gradient       ....       0.444 sec  (  1.0%)
Prescreening matrices       ....       0.091 sec  (  0.2%)
Two electron gradient       ....      27.111 sec  ( 60.7%)
XC gradient                 ....      16.734 sec  ( 37.4%)
------------------------------------------------------------------------------
                         ORCA GEOMETRY RELAXATION STEP
------------------------------------------------------------------------------

Reading the OPT-File                    .... done
Getting information on internals        .... done
Copying old internal coords+grads       .... done
Making the new internal coordinates     .... (new redundants).... done
Validating the new internal coordinates .... (new redundants).... done
Calculating the B-matrix                .... done
Calculating the G,G- and P matrices     .... done
Transforming gradient to internals      .... done
Projecting the internal gradient        .... done
Number of atoms                         ....  25
Number of internal coordinates          .... 149
Current Energy                          ....  -538.409885674 Eh
Current gradient norm                   ....     0.060465748 Eh/bohr
Maximum allowed component of the step   ....  0.300
Current trust radius                    ....  0.300
Evaluating the initial hessian          ....  (Almloef) done
Projecting the Hessian                  .... done
Forming the augmented Hessian           .... done
Diagonalizing the augmented Hessian     .... done
Last element of RFO vector              ....  0.894405519
Lowest eigenvalues of augmented Hessian:
 -0.077063464  0.033131448  0.034209344  0.041187643  0.041869860
Length of the computed step             ....  0.500060573
Warning: the length of the step is outside the trust region - taking restricted step instead
The input lambda is                     ....    -0.077063
   iter:   1  x=   -0.154461  g=    2.068039 f(x)=     0.160061
   iter:   2  x=   -0.226837  g=    0.821314 f(x)=     0.059443
   iter:   3  x=   -0.260235  g=    0.454709 f(x)=     0.015186
   iter:   4  x=   -0.264703  g=    0.362682 f(x)=     0.001621
   iter:   5  x=   -0.264769  g=    0.352458 f(x)=     0.000023
   iter:   6  x=   -0.264769  g=    0.352312 f(x)=     0.000000
   iter:   7  x=   -0.264769  g=    0.352312 f(x)=     0.000000
The output lambda is                    ....    -0.264769 (7 iterations)
The final length of the internal step   ....  0.300000000
Converting the step to cartesian space:
 Initial RMS(Int)=    0.0245769576
Transforming coordinates:
 Iter   0:  RMS(Cart)=    0.2807269750 RMS(Int)=    0.0269152508
 Iter   1:  RMS(Cart)=    0.0225174513 RMS(Int)=    0.0104227396
 Iter   2:  RMS(Cart)=    0.0042271625 RMS(Int)=    0.0010157443
 Iter   3:  RMS(Cart)=    0.0006448823 RMS(Int)=    0.0003105136
 Iter   4:  RMS(Cart)=    0.0001301423 RMS(Int)=    0.0000400848
 Iter   5:  RMS(Cart)=    0.0000216769 RMS(Int)=    0.0000098395
 Iter   6:  RMS(Cart)=    0.0000043767 RMS(Int)=    0.0000016285
 Iter   7:  RMS(Cart)=    0.0000007462 RMS(Int)=    0.0000003338
 Iter   8:  RMS(Cart)=    0.0000001513 RMS(Int)=    0.0000000644
 Iter   9:  RMS(Cart)=    0.0000000280 RMS(Int)=    0.0000000121
Imposing constraints:
 Iter   0:  RMS(Cart)=    0.0001809526 RMS(Int)=    0.0000878758
 Iter   1:  RMS(Cart)=    0.0000983526 RMS(Int)=    0.0000567501
 Iter   2:  RMS(Cart)=    0.0000548604 RMS(Int)=    0.0000439297
 Iter   3:  RMS(Cart)=    0.0000316933 RMS(Int)=    0.0000388470
 Iter   4:  RMS(Cart)=    0.0000192906 RMS(Int)=    0.0000365548
 Iter   5:  RMS(Cart)=    0.0000126780 RMS(Int)=    0.0000351920
 Iter   6:  RMS(Cart)=    0.0000091909 RMS(Int)=    0.0000341423
 Iter   7:  RMS(Cart)=    0.0000073576 RMS(Int)=    0.0000332091
 Iter   8:  RMS(Cart)=    0.0000063676 RMS(Int)=    0.0000323294
 Iter   9:  RMS(Cart)=    0.0000057971 RMS(Int)=    0.0000314828
 Iter  10:  RMS(Cart)=    0.0000054363 RMS(Int)=    0.0000306623
 Iter  11:  RMS(Cart)=    0.0000051839 RMS(Int)=    0.0000298652
 Iter  12:  RMS(Cart)=    0.0000049897 RMS(Int)=    0.0000290904
 Iter  13:  RMS(Cart)=    0.0000048283 RMS(Int)=    0.0000283371
 Iter  14:  RMS(Cart)=    0.0000046864 RMS(Int)=    0.0000276046
 Iter  15:  RMS(Cart)=    0.0000045567 RMS(Int)=    0.0000268923
 Iter  16:  RMS(Cart)=    0.0000044352 RMS(Int)=    0.0000261997
 Iter  17:  RMS(Cart)=    0.0000043195 RMS(Int)=    0.0000255261
 Iter  18:  RMS(Cart)=    0.0000042085 RMS(Int)=    0.0000248710
 Iter  19:  RMS(Cart)=    0.0000041012 RMS(Int)=    0.0000242338
 Iter  20:  RMS(Cart)=    0.0000039972 RMS(Int)=    0.0000236140
 Iter  21:  RMS(Cart)=    0.0000038962 RMS(Int)=    0.0000230111
 Iter  22:  RMS(Cart)=    0.0000037981 RMS(Int)=    0.0000224246
 Iter  23:  RMS(Cart)=    0.0000037026 RMS(Int)=    0.0000218540
 Iter  24:  RMS(Cart)=    0.0000036096 RMS(Int)=    0.0000212987
 Iter  25:  RMS(Cart)=    0.0000035191 RMS(Int)=    0.0000207585
 Iter  26:  RMS(Cart)=    0.0000034310 RMS(Int)=    0.0000202327
 Iter  27:  RMS(Cart)=    0.0000033452 RMS(Int)=    0.0000197210
 Iter  28:  RMS(Cart)=    0.0000032616 RMS(Int)=    0.0000192231
 Iter  29:  RMS(Cart)=    0.0000031802 RMS(Int)=    0.0000187384
 Iter  30:  RMS(Cart)=    0.0000031009 RMS(Int)=    0.0000182666
 Iter  31:  RMS(Cart)=    0.0000030237 RMS(Int)=    0.0000178073
 Iter  32:  RMS(Cart)=    0.0000029485 RMS(Int)=    0.0000173602
 Iter  33:  RMS(Cart)=    0.0000028751 RMS(Int)=    0.0000169248
 Iter  34:  RMS(Cart)=    0.0000028037 RMS(Int)=    0.0000165010
 Iter  35:  RMS(Cart)=    0.0000027341 RMS(Int)=    0.0000160883
 Iter  36:  RMS(Cart)=    0.0000026663 RMS(Int)=    0.0000156865
 Iter  37:  RMS(Cart)=    0.0000026003 RMS(Int)=    0.0000152951
 Iter  38:  RMS(Cart)=    0.0000025359 RMS(Int)=    0.0000149140
 Iter  39:  RMS(Cart)=    0.0000024731 RMS(Int)=    0.0000145429
 Iter  40:  RMS(Cart)=    0.0000024120 RMS(Int)=    0.0000141814
 Iter  41:  RMS(Cart)=    0.0000023524 RMS(Int)=    0.0000138293
 Iter  42:  RMS(Cart)=    0.0000022943 RMS(Int)=    0.0000134863
 Iter  43:  RMS(Cart)=    0.0000022377 RMS(Int)=    0.0000131522
 Iter  44:  RMS(Cart)=    0.0000021826 RMS(Int)=    0.0000128268
 Iter  45:  RMS(Cart)=    0.0000021288 RMS(Int)=    0.0000125097
 Iter  46:  RMS(Cart)=    0.0000020764 RMS(Int)=    0.0000122008
 Iter  47:  RMS(Cart)=    0.0000020253 RMS(Int)=    0.0000118998
 Iter  48:  RMS(Cart)=    0.0000019755 RMS(Int)=    0.0000116066
 Iter  49:  RMS(Cart)=    0.0000019270 RMS(Int)=    0.0000113209
 Iter  50:  RMS(Cart)=    0.0000018797 RMS(Int)=    0.0000110424
 Iter  51:  RMS(Cart)=    0.0000018336 RMS(Int)=    0.0000107711
 Iter  52:  RMS(Cart)=    0.0000017886 RMS(Int)=    0.0000105068
 Iter  53:  RMS(Cart)=    0.0000017448 RMS(Int)=    0.0000102491
 Iter  54:  RMS(Cart)=    0.0000017020 RMS(Int)=    0.0000099980
 Iter  55:  RMS(Cart)=    0.0000016603 RMS(Int)=    0.0000097533
 Iter  56:  RMS(Cart)=    0.0000016197 RMS(Int)=    0.0000095148
[...]
E(X)               :      -56.490223831907 Eh       
E(C)               :       -3.424567328514 Eh       
E(XC)              :      -59.914791160422 Eh       
DFET-embed. en.    :        0.000000000000 Eh       

---------------
SCF CONVERGENCE
---------------

  Last Energy change         ...   -1.2814e-08  Tolerance :   1.0000e-08
  Last MAX-Density change    ...    4.7598e-06  Tolerance :   1.0000e-07
  Last RMS-Density change    ...    1.9943e-07  Tolerance :   5.0000e-09
  Last Orbital Gradient      ...    6.6435e-07  Tolerance :   1.0000e-05
  Last Orbital Rotation      ...    9.2336e-07  Tolerance :   1.0000e-05

             **** THE GBW FILE WAS UPDATED (ensemble_195_0.gbw) ****
             **** DENSITY FILE WAS UPDATED (ensemble_195_0.scfp) ****
             **** ENERGY FILE WAS UPDATED (ensemble_195_0.en.tmp) ****
             **** THE GBW FILE WAS UPDATED (ensemble_195_0.gbw) ****
             **** DENSITY FILE WAS UPDATED (ensemble_195_0.scfp) ****
----------------
ORBITAL ENERGIES
----------------

  NO   OCC          E(Eh)            E(eV) 
   0   2.0000     -19.138526      -520.7858 
   1   2.0000     -19.135190      -520.6950 
   2   2.0000     -19.132251      -520.6150 
   3   2.0000     -10.272213      -279.5211 
   4   2.0000     -10.242407      -278.7101 
   5   2.0000     -10.231760      -278.4203 
   6   2.0000     -10.224003      -278.2093 
   7   2.0000     -10.220785      -278.1217 
   8   2.0000     -10.183633      -277.1107 
   9   2.0000     -10.183308      -277.1019 
  10   2.0000     -10.183198      -277.0989 
  11   2.0000      -1.047451       -28.5026 
  12   2.0000      -1.019663       -27.7464 
  13   2.0000      -0.982977       -26.7482 
  14   2.0000      -0.786868       -21.4118 
  15   2.0000      -0.777667       -21.1614 
  16   2.0000      -0.741096       -20.1662 
  17   2.0000      -0.724697       -19.7200 
  18   2.0000      -0.617333       -16.7985 
  19   2.0000      -0.602253       -16.3882 
  20   2.0000      -0.592996       -16.1362 
  21   2.0000      -0.563836       -15.3428 
  22   2.0000      -0.521300       -14.1853 
  23   2.0000      -0.501105       -13.6358 
  24   2.0000      -0.484806       -13.1922 
  25   2.0000      -0.483279       -13.1507 
  26   2.0000      -0.451767       -12.2932 
  27   2.0000      -0.448080       -12.1929 
  28   2.0000      -0.426459       -11.6045 
  29   2.0000      -0.412378       -11.2214 
  30   2.0000      -0.405612       -11.0373 
  31   2.0000      -0.385572       -10.4920 
  32   2.0000      -0.373676       -10.1682 
  33   2.0000      -0.367808       -10.0086 
  34   2.0000      -0.361091        -9.8258 
  35   2.0000      -0.351229        -9.5574 
  36   2.0000      -0.347667        -9.4605 
  37   2.0000      -0.318762        -8.6740 
  38   2.0000      -0.306219        -8.3326 
  39   2.0000      -0.293768        -7.9938 
  40   2.0000      -0.255014        -6.9393 
  41   2.0000      -0.244112        -6.6426 
  42   2.0000      -0.243641        -6.6298 
  43   0.0000       0.077352         2.1048 
  44   0.0000       0.092907         2.5281 
  45   0.0000       0.099641         2.7114 
  46   0.0000       0.107598         2.9279 
  47   0.0000       0.119428         3.2498 
  48   0.0000       0.122064         3.3215 
  49   0.0000       0.131551         3.5797 
  50   0.0000       0.139411         3.7936 
  51   0.0000       0.146745         3.9931 
  52   0.0000       0.149165         4.0590 
  53   0.0000       0.156881         4.2690 
  54   0.0000       0.162322         4.4170 
  55   0.0000       0.172137         4.6841 
  56   0.0000       0.174129         4.7383 
  57   0.0000       0.185580         5.0499 
  58   0.0000       0.197066         5.3624 
  59   0.0000       0.207760         5.6534 
  60   0.0000       0.226851         6.1729 
  61   0.0000       0.229344         6.2408 
  62   0.0000       0.231699         6.3049 
  63   0.0000       0.252061         6.8589 
  64   0.0000       0.266182         7.2432 
  65   0.0000       0.272163         7.4059 
  66   0.0000       0.288914         7.8617 
  67   0.0000       0.290689         7.9101 
  68   0.0000       0.327339         8.9074 
  69   0.0000       0.527959        14.3665 
  70   0.0000       0.545121        14.8335 
  71   0.0000       0.551801        15.0153 
  72   0.0000       0.556158        15.1338 
  73   0.0000       0.559770        15.2321 
  74   0.0000       0.563733        15.3400 
  75   0.0000       0.571405        15.5487 
  76   0.0000       0.579415        15.7667 
  77   0.0000       0.592648        16.1268 
  78   0.0000       0.604053        16.4371 
  79   0.0000       0.618775        16.8377 
  80   0.0000       0.641307        17.4509 
  81   0.0000       0.651755        17.7352 
  82   0.0000       0.658278        17.9127 
  83   0.0000       0.663756        18.0617 
  84   0.0000       0.684582        18.6284 
  85   0.0000       0.706007        19.2114 
  86   0.0000       0.756217        20.5777 
  87   0.0000       0.792936        21.5769 
  88   0.0000       0.811163        22.0729 
  89   0.0000       0.826100        22.4793 
  90   0.0000       0.839163        22.8348 
  91   0.0000       0.843037        22.9402 
  92   0.0000       0.865956        23.5638 
  93   0.0000       0.871751        23.7215 
  94   0.0000       0.876159        23.8415 
  95   0.0000       0.898807        24.4578 
  96   0.0000       0.902216        24.5505 
  97   0.0000       0.906821        24.6759 
  98   0.0000       0.924328        25.1522 
  99   0.0000       0.940176        25.5835 
 100   0.0000       0.943975        25.6869 
 101   0.0000       0.953109        25.9354 
 102   0.0000       0.957765        26.0621 
 103   0.0000       0.975907        26.5558 
 104   0.0000       0.979871        26.6636 
 105   0.0000       0.999163        27.1886 
 106   0.0000       1.019222        27.7345 
 107   0.0000       1.028387        27.9838 
 108   0.0000       1.118298        30.4304 
 109   0.0000       1.122537        30.5458 
 110   0.0000       1.134508        30.8715 
 111   0.0000       1.209837        32.9213 
 112   0.0000       1.258527        34.2463 
 113   0.0000       1.280753        34.8511 
 114   0.0000       1.311997        35.7013 
 115   0.0000       1.349872        36.7319 
 116   0.0000       1.373077        37.3633 
 117   0.0000       1.429984        38.9118 
 118   0.0000       1.449027        39.4300 
 119   0.0000       1.504144        40.9298 
 120   0.0000       1.565089        42.5882 
 121   0.0000       1.637606        44.5615 
 122   0.0000       1.688686        45.9515 
 123   0.0000       1.743962        47.4556 
 124   0.0000       2.001418        54.4614 
 125   0.0000       2.028338        55.1939 
 126   0.0000       2.142224        58.2929 

                    ********************************
                    * MULLIKEN POPULATION ANALYSIS *
                    ********************************

-----------------------
MULLIKEN ATOMIC CHARGES
-----------------------
   0 C :    0.290198
   1 C :   -0.271996
   2 C :   -0.299174
   3 C :    0.000263
   4 O :   -0.505891
   5 H :    0.173950
   6 H :    0.146582
   7 H :    0.137548
   8 H :    0.139817
   9 H :    0.157332
  10 H :    0.151893
  11 H :    0.140270
  12 C :   -0.040156
  13 H :    0.135821
  14 C :    0.086828
  15 C :   -0.285178
  16 C :   -0.012053
  17 O :   -0.525103
  18 H :    0.159139
  19 O :   -0.528845
  20 H :    0.139771
  21 H :    0.172062
  22 H :    0.136708
  23 H :    0.140747
  24 H :    0.159466
Sum of atomic charges:   -0.0000000

--------------------------------
MULLIKEN REDUCED ORBITAL CHARGES
--------------------------------
  0 C s       :     3.212988  s :     3.212988
      pz      :     0.792353  p :     2.496813
      px      :     0.690097
      py      :     1.014362
  1 C s       :     3.304800  s :     3.304800
      pz      :     0.983886  p :     2.967196
      px      :     1.037394
      py      :     0.945916
  2 C s       :     3.315278  s :     3.315278
      pz      :     0.910745  p :     2.983896
      px      :     1.079697
      py      :     0.993454
  3 C s       :     3.260749  s :     3.260749
      pz      :     0.923507  p :     2.738987
      px      :     1.073366
      py      :     0.742115
  4 O s       :     3.941165  s :     3.941165
      pz      :     1.249754  p :     4.564726
      px      :     1.794250
      py      :     1.520722
  5 H s       :     0.826050  s :     0.826050
  6 H s       :     0.853418  s :     0.853418
  7 H s       :     0.862452  s :     0.862452
  8 H s       :     0.860183  s :     0.860183
  9 H s       :     0.842668  s :     0.842668
 10 H s       :     0.848107  s :     0.848107
 11 H s       :     0.859730  s :     0.859730
 12 C s       :     3.277369  s :     3.277369
      pz      :     0.978874  p :     2.762787
      px      :     1.058589
      py      :     0.725324
 13 H s       :     0.864179  s :     0.864179
 14 C s       :     3.251989  s :     3.251989
      pz      :     0.749171  p :     2.661184
      px      :     0.877135
      py      :     1.034877
 15 C s       :     3.313205  s :     3.313205
      pz      :     1.080870  p :     2.971973
      px      :     0.973190
      py      :     0.917913
 16 C s       :     3.265445  s :     3.265445
      pz      :     0.982306  p :     2.746608
      px      :     0.837854
      py      :     0.926449
 17 O s       :     3.942319  s :     3.942319
      pz      :     1.785793  p :     4.582783
      px      :     1.588957
      py      :     1.208033
 18 H s       :     0.840861  s :     0.840861
 19 O s       :     3.922548  s :     3.922548
      pz      :     1.473197  p :     4.606296
      px      :     1.270505
      py      :     1.862594
 20 H s       :     0.860229  s :     0.860229
 21 H s       :     0.827938  s :     0.827938
 22 H s       :     0.863292  s :     0.863292
 23 H s       :     0.859253  s :     0.859253
 24 H s       :     0.840534  s :     0.840534


                     *******************************
                     * LOEWDIN POPULATION ANALYSIS *
                     *******************************

----------------------
LOEWDIN ATOMIC CHARGES
----------------------
   0 C :    0.177440
   1 C :   -0.232350
   2 C :   -0.217205
   3 C :   -0.025420
   4 O :   -0.302141
   5 H :    0.112139
   6 H :    0.114819
   7 H :    0.109423
   8 H :    0.113255
   9 H :    0.116665
  10 H :    0.107863
  11 H :    0.101388
  12 C :   -0.055345
  13 H :    0.100095
  14 C :    0.041724
  15 C :   -0.228352
  16 C :   -0.031443
  17 O :   -0.335816
  18 H :    0.114365
  19 O :   -0.340448
  20 H :    0.105167
  21 H :    0.132589
  22 H :    0.109346
  23 H :    0.101917
  24 H :    0.110326

-------------------------------
LOEWDIN REDUCED ORBITAL CHARGES
-------------------------------
  0 C s       :     2.955917  s :     2.955917
      pz      :     0.924461  p :     2.866643
      px      :     0.850112
      py      :     1.092071
  1 C s       :     2.982900  s :     2.982900
      pz      :     1.073991  p :     3.249449
      px      :     1.111605
      py      :     1.063853
  2 C s       :     2.971938  s :     2.971938
      pz      :     1.032383  p :     3.245267
      px      :     1.131560
      py      :     1.081324
  3 C s       :     2.983248  s :     2.983248
      pz      :     1.027567  p :     3.042172
      px      :     1.130880
      py      :     0.883725
  4 O s       :     3.590867  s :     3.590867
      pz      :     1.322931  p :     4.711275
      px      :     1.820042
      py      :     1.568302
  5 H s       :     0.887861  s :     0.887861
  6 H s       :     0.885181  s :     0.885181
  7 H s       :     0.890577  s :     0.890577
  8 H s       :     0.886745  s :     0.886745
  9 H s       :     0.883335  s :     0.883335
 10 H s       :     0.892137  s :     0.892137
 11 H s       :     0.898612  s :     0.898612
 12 C s       :     2.985414  s :     2.985414
      pz      :     1.087578  p :     3.069931
      px      :     1.119506
      py      :     0.862847
 13 H s       :     0.899905  s :     0.899905
 14 C s       :     2.953305  s :     2.953305
      pz      :     0.916780  p :     3.004971
      px      :     0.992321
      py      :     1.095870
 15 C s       :     2.983287  s :     2.983287
      pz      :     1.124731  p :     3.245065
      px      :     1.078554
      py      :     1.041780
 16 C s       :     2.984809  s :     2.984809
      pz      :     1.057346  p :     3.046634
      px      :     0.955354
      py      :     1.033934
 17 O s       :     3.607717  s :     3.607717
      pz      :     1.812257  p :     4.728100
      px      :     1.634337
      py      :     1.281505
 18 H s       :     0.885635  s :     0.885635
 19 O s       :     3.586828  s :     3.586828
      pz      :     1.528901  p :     4.753620
      px      :     1.340025
      py      :     1.884694
 20 H s       :     0.894833  s :     0.894833
 21 H s       :     0.867411  s :     0.867411
 22 H s       :     0.890654  s :     0.890654
 23 H s       :     0.898083  s :     0.898083
 24 H s       :     0.889674  s :     0.889674


                      *****************************
                      * MAYER POPULATION ANALYSIS *
                      *****************************

  NA   - Mulliken gross atomic population
  ZA   - Total nuclear charge
  QA   - Mulliken gross atomic charge
  VA   - Mayer's total valence
  BVA  - Mayer's bonded valence
  FA   - Mayer's free valence

  ATOM       NA         ZA         QA         VA         BVA        FA
  0 C      5.7098     6.0000     0.2902     3.6291     3.6291     0.0000
  1 C      6.2720     6.0000    -0.2720     3.7167     3.7167     0.0000
  2 C      6.2992     6.0000    -0.2992     3.7646     3.7646     0.0000
  3 C      5.9997     6.0000     0.0003     3.6619     3.6619    -0.0000
  4 O      8.5059     8.0000    -0.5059     1.7939     1.7939     0.0000
  5 H      0.8261     1.0000     0.1739     0.9368     0.9368     0.0000
  6 H      0.8534     1.0000     0.1466     0.9330     0.9330    -0.0000
  7 H      0.8625     1.0000     0.1375     0.9413     0.9413    -0.0000
  8 H      0.8602     1.0000     0.1398     0.9372     0.9372     0.0000
  9 H      0.8427     1.0000     0.1573     0.9365     0.9365     0.0000
 10 H      0.8481     1.0000     0.1519     0.9261     0.9261     0.0000
 11 H      0.8597     1.0000     0.1403     0.9292     0.9292     0.0000
 12 C      6.0402     6.0000    -0.0402     3.6389     3.6389    -0.0000
 13 H      0.8642     1.0000     0.1358     0.9267     0.9267    -0.0000
 14 C      5.9132     6.0000     0.0868     3.6712     3.6712     0.0000
 15 C      6.2852     6.0000    -0.2852     3.7090     3.7090    -0.0000
 16 C      6.0121     6.0000    -0.0121     3.6563     3.6563     0.0000
 17 O      8.5251     8.0000    -0.5251     1.7717     1.7717     0.0000
 18 H      0.8409     1.0000     0.1591     0.9366     0.9366    -0.0000
 19 O      8.5288     8.0000    -0.5288     1.7187     1.7187    -0.0000
 20 H      0.8602     1.0000     0.1398     0.9323     0.9323     0.0000
 21 H      0.8279     1.0000     0.1721     0.9387     0.9387     0.0000
 22 H      0.8633     1.0000     0.1367     0.9341     0.9341    -0.0000
 23 H      0.8593     1.0000     0.1407     0.9276     0.9276     0.0000
 24 H      0.8405     1.0000     0.1595     0.9258     0.9258     0.0000

  Mayer bond orders larger than 0.100000
B(  0-C ,  1-C ) :   0.9287 B(  0-C ,  4-O ) :   0.9237 B(  0-C ,  5-H ) :   0.9026 
B(  0-C , 19-O ) :   0.8170 B(  1-C ,  2-C ) :   0.9490 B(  1-C ,  6-H ) :   0.9341 
B(  1-C ,  7-H ) :   0.9335 B(  2-C ,  3-C ) :   0.9556 B(  2-C ,  8-H ) :   0.9450 
B(  2-C ,  9-H ) :   0.9449 B(  3-C ,  4-O ) :   0.8371 B(  3-C , 10-H ) :   0.9350 
B(  3-C , 11-H ) :   0.9399 B( 12-C , 13-H ) :   0.9141 B( 12-C , 14-C ) :   0.9255 
B( 12-C , 17-O ) :   0.8548 B( 12-C , 18-H ) :   0.9234 B( 14-C , 15-C ) :   0.9321 
B( 14-C , 19-O ) :   0.8554 B( 14-C , 20-H ) :   0.9288 B( 15-C , 16-C ) :   0.9481 
B( 15-C , 21-H ) :   0.9355 B( 15-C , 22-H ) :   0.9378 B( 16-C , 17-O ) :   0.8403 
B( 16-C , 23-H ) :   0.9357 B( 16-C , 24-H ) :   0.9360 

-------
TIMINGS
-------

Total SCF time: 0 days 0 hours 0 min 55 sec 

Total time                  ....      55.954 sec
Sum of individual times     ....      55.327 sec  ( 98.9%)

Fock matrix formation       ....      49.938 sec  ( 89.2%)
  XC integration            ....       5.495 sec  ( 11.0% of F)
    Basis function eval.    ....       2.578 sec  ( 46.9% of XC)
    Density eval.           ....       0.986 sec  ( 17.9% of XC)
    XC-Functional eval.     ....       0.503 sec  (  9.1% of XC)
    XC-Potential eval.      ....       1.102 sec  ( 20.1% of XC)
Diagonalization             ....       0.007 sec  (  0.0%)
Density matrix formation    ....       0.003 sec  (  0.0%)
Population analysis         ....       0.048 sec  (  0.1%)
Initial guess               ....       0.008 sec  (  0.0%)
Orbital Transformation      ....       0.000 sec  (  0.0%)
Orbital Orthonormalization  ....       0.003 sec  (  0.0%)
DIIS solution               ....       0.001 sec  (  0.0%)
SOSCF solution              ....       0.019 sec  (  0.0%)
Grid generation             ....       5.301 sec  (  9.5%)

-------------------------   --------------------
FINAL SINGLE POINT ENERGY      -538.427928969639
-------------------------   --------------------

                                *** OPTIMIZATION RUN DONE ***

                            ***************************************
                            *     ORCA property calculations      *
                            ***************************************

                                    ---------------------
                                    Active property flags
                                    ---------------------
   (+) Dipole Moment


------------------------------------------------------------------------------
                       ORCA ELECTRIC PROPERTIES CALCULATION
------------------------------------------------------------------------------

Dipole Moment Calculation                       ... on
Quadrupole Moment Calculation                   ... off
Polarizability Calculation                      ... off
GBWName                                         ... ensemble_195_0.gbw
Electron density file                           ... ensemble_195_0.scfp
The origin for moment calculation is the CENTER OF MASS  = (-41.038646, 49.495244 86.513970)

-------------
DIPOLE MOMENT
-------------
                                X             Y             Z
Electronic contribution:      0.36187      -2.87749       0.30787
Nuclear contribution   :     -0.76615       3.87537      -0.62170
                        -----------------------------------------
Total Dipole Moment    :     -0.40427       0.99787      -0.31383
                        -----------------------------------------
Magnitude (a.u.)       :      1.12146
Magnitude (Debye)      :      2.85052



--------------------
Rotational spectrum 
--------------------
 
Rotational constants in cm-1:     0.081897     0.021948     0.021108 
Rotational constants in MHz :  2455.224689   657.999458   632.792885 

 Dipole components along the rotational axes: 
x,y,z [a.u.] :    -0.002276    -0.722485     0.857719 
x,y,z [Debye]:    -0.005784    -1.836412     2.180148 

 

Timings for individual modules:

Sum of individual times         ...     1017.364 sec (=  16.956 min)
GTO integral calculation        ...        5.314 sec (=   0.089 min)   0.5 %
SCF iterations                  ...      707.988 sec (=  11.800 min)  69.6 %
SCF Gradient evaluation         ...      301.709 sec (=   5.028 min)  29.7 %
Geometry relaxation             ...        2.353 sec (=   0.039 min)   0.2 %
                             ****ORCA TERMINATED NORMALLY****
TOTAL RUN TIME: 0 days 0 hours 17 minutes 0 seconds 889 msec
