
                                 *****************
                                 * O   R   C   A *
                                 *****************

           --- An Ab Initio, DFT and Semiempirical electronic structure package ---

                  #######################################################
                  #                        -***-                        #
                  #          Department of theory and spectroscopy      #
                  #               Directorship: Frank Neese             #
                  #        Max Planck Institute fuer Kohlenforschung    #
                  #                Kaiser Wilhelm Platz 1               #
                  #                 D-45470 Muelheim/Ruhr               #
                  #                      Germany                        #
                  #                                                     #
                  #                  All rights reserved                #
                  #                        -***-                        #
                  #######################################################


                         Program Version 4.2.1 -  RELEASE  -


 With contributions from (in alphabetic order):
   Daniel Aravena         : Magnetic Suceptibility
   Michael Atanasov       : Ab Initio Ligand Field Theory (pilot matlab implementation)
   Alexander A. Auer      : GIAO ZORA, VPT2
   Ute Becker             : Parallelization
   Giovanni Bistoni       : ED, misc. LED, open-shell LED, HFLD
   Martin Brehm           : Molecular dynamics
   Dmytro Bykov           : SCF Hessian
   Vijay G. Chilkuri      : MRCI spin determinant printing, contributions to CSF-ICE
   Dipayan Datta          : RHF DLPNO-CCSD density
   Achintya Kumar Dutta   : EOM-CC, STEOM-CC
   Dmitry Ganyushin       : Spin-Orbit,Spin-Spin,Magnetic field MRCI
   Miquel Garcia          : C-PCM Hessian, Gaussian charge scheme
   Yang Guo               : DLPNO-NEVPT2, CIM, IAO-localization
   Andreas Hansen         : Spin unrestricted coupled pair/coupled cluster methods
   Benjamin Helmich-Paris : CASSCF linear response (MC-RPA)
   Lee Huntington         : MR-EOM, pCC
   Robert Izsak           : Overlap fitted RIJCOSX, COSX-SCS-MP3, EOM
   Christian Kollmar      : KDIIS, OOCD, Brueckner-CCSD(T), CCSD density
   Simone Kossmann        : Meta GGA functionals, TD-DFT gradient, OOMP2, MP2 Hessian
   Martin Krupicka        : AUTO-CI
   Lucas Lang             : DCDCAS
   Dagmar Lenk            : GEPOL surface, SMD
   Dimitrios Liakos       : Extrapolation schemes; Compound Job, initial MDCI parallelization
   Dimitrios Manganas     : Further ROCIS development; embedding schemes
   Dimitrios Pantazis     : SARC Basis sets
   Taras Petrenko         : DFT Hessian,TD-DFT gradient, ASA, ECA, R-Raman, ABS, FL, XAS/XES, NRVS
   Peter Pinski           : DLPNO-MP2, DLPNO-MP2 Gradient
   Christoph Reimann      : Effective Core Potentials
   Marius Retegan         : Local ZFS, SOC
   Christoph Riplinger    : Optimizer, TS searches, QM/MM, DLPNO-CCSD(T), (RO)-DLPNO pert. Triples
   Tobias Risthaus        : Range-separated hybrids, TD-DFT gradient, RPA, STAB
   Michael Roemelt        : Original ROCIS implementation
   Masaaki Saitow         : Open-shell DLPNO-CCSD energy and density
   Barbara Sandhoefer     : DKH picture change effects
   Avijit Sen             : IP-ROCIS
   Kantharuban Sivalingam : CASSCF convergence, NEVPT2, FIC-MRCI
   Bernardo de Souza      : ESD, SOC TD-DFT
   Georgi Stoychev        : AutoAux, RI-MP2 NMR
   Willem Van den Heuvel  : Paramagnetic NMR
   Boris Wezisla          : Elementary symmetry handling
   Frank Wennmohs         : Technical directorship


 We gratefully acknowledge several colleagues who have allowed us to
 interface, adapt or use parts of their codes:
   Stefan Grimme, W. Hujo, H. Kruse,             : VdW corrections, initial TS optimization,
                  C. Bannwarth                     DFT functionals, gCP, sTDA/sTD-DF
   Ed Valeev, F. Pavosevic, A. Kumar             : LibInt (2-el integral package), F12 methods
   Garnet Chan, S. Sharma, J. Yang, R. Olivares  : DMRG
   Ulf Ekstrom                                   : XCFun DFT Library
   Mihaly Kallay                                 : mrcc  (arbitrary order and MRCC methods)
   Andreas Klamt, Michael Diedenhofen            : otool_cosmo (COSMO solvation model)
   Jiri Pittner, Ondrej Demel                    : Mk-CCSD
   Frank Weinhold                                : gennbo (NPA and NBO analysis)
   Christopher J. Cramer and Donald G. Truhlar   : smd solvation model
   Lars Goerigk                                  : TD-DFT with DH, B97 family of functionals
   V. Asgeirsson, H. Jonsson                     : NEB implementation
   FAccTs GmbH                                   : IRC, NEB, NEB-TS, Multilevel, MM, QM/MM, CI optimization
   S Lehtola, MJT Oliveira, MAL Marques          : LibXC Library


 Your calculation uses the libint2 library for the computation of 2-el integrals
 For citations please refer to: http://libint.valeyev.net

 Your ORCA version has been built with support for libXC version: 4.2.3
 For citations please refer to: https://tddft.org/programs/libxc/

 This ORCA versions uses:
   CBLAS   interface :  Fast vector & matrix operations
   LAPACKE interface :  Fast linear algebra routines
   SCALAPACK package :  Parallel linear algebra routines


----- Orbital basis set information -----
Your calculation utilizes the basis: 6-31G
   H-He, Li-Ne : W. J. Hehre, R. Ditchfield and J.A. Pople, J. Chem. Phys. 56, 2257 (1972).
                 Note: He and Ne are unpublished basis sets taken from the Gaussian program.
                 Note: Li and B from J. D. Dill and J. A. Pople, J. Chem. Phys. 62, 2921 (1975).
   Na - Ar     : M. M. Francl, W. J. Pietro, W. J. Hehre, J. S. Binkley, M. S. Gordon, 
                 D. J. DeFrees and J. A. Pople, J. Chem. Phys. 77, 3654 (1982).
   K - Zn      : V. A. Rassolov, J. A. Pople, M. A. Ratner, and T. L. Windus, J. Chem. Phys. 109, 1223 (1998).

================================================================================
                                        WARNINGS
                       Please study these warnings very carefully!
================================================================================


WARNING: Geometry Optimization
  ===> : Switching off AutoStart
         For restart on a previous wavefunction, please use MOREAD

INFO   : the flag for use of LIBINT has been found!

================================================================================
                                       INPUT FILE
================================================================================
NAME = ensemble_345_210.inp
|  1> # Test redundant internal optimization
|  2> #
|  3> ! RKS B3LYP  Opt TightSCF SmallPrint
|  4> 
|  5> %basis
|  6>         Basis "6-31G"
|  7> end
|  8> 
|  9> %geom
| 10> Constraints
| 11> { D 4  0  19  14  345.0   C } # D for Dihedral angle
| 12> { D 0  19  14  12  210.0   C } # D for Dihedral angle
| 13> { D 0  4  3  2   C } # D for Dihedral angle
| 14> { D 4  3  2  1   C } # D for Dihedral angle
| 15> { D 3  2  1  0   C } # D for Dihedral angle
| 16> { D 2  1  0  4   C } # D for Dihedral angle
| 17> { D 1  0  4  3   C } # D for Dihedral angle
| 18> { D 14  15  16  17   C } # D for Dihedral angle
| 19> { D 15  16  17  12   C } # D for Dihedral angle
| 20> { D 16  17  12  14   C } # D for Dihedral angle
| 21> { D 17  12  14  15   C } # D for Dihedral angle
| 22> { D 12  14  15  16   C } # D for Dihedral angle
| 23> end
| 24> end
| 25> 
| 26> 
| 27> #%pal 
| 28> #nprocs 8
| 29> #end
| 30> 
| 31> * xyz 0 1
| 32> C  -21.048   26.222   46.251
| 33> C  -20.361   27.558   45.944
| 34> C  -20.329   28.222   47.341
| 35> C  -20.110   27.022   48.296
| 36> O  -20.473   25.807   47.535
| 37> H  -20.833   25.428   45.533
| 38> H  -19.344   27.382   45.576
| 39> H  -20.898   28.157   45.201
| 40> H  -19.543   28.978   47.434
| 41> H  -21.289   28.710   47.548
| 42> H  -20.733   27.082   49.195
| 43> H  -19.064   26.913   48.597
| 44> C  -24.479   25.341   47.269
| 45> H  -25.030   25.159   48.205
| 46> C  -23.040   25.792   47.547
| 47> C  -22.348   24.449   47.875
| 48> C  -23.064   23.445   46.938
| 49> O  -24.326   24.092   46.514
| 50> H  -25.054   26.024   46.642
| 51> O  -22.472   26.381   46.366
| 52> H  -22.968   26.518   48.364
| 53> H  -21.266   24.476   47.708
| 54> H  -22.517   24.184   48.926
| 55> H  -23.297   22.497   47.436
| 56> H  -22.489   23.236   46.031
| 57> *
| 58> 
| 59>                          ****END OF INPUT****
================================================================================

                       *****************************
                       * Geometry Optimization Run *
                       *****************************

Geometry optimization settings:
Update method            Update   .... BFGS
Choice of coordinates    CoordSys .... Z-matrix Internals
Initial Hessian          InHess   .... Almoef's Model

Convergence Tolerances:
Energy Change            TolE     ....  5.0000e-06 Eh
Max. Gradient            TolMAXG  ....  3.0000e-04 Eh/bohr
RMS Gradient             TolRMSG  ....  1.0000e-04 Eh/bohr
Max. Displacement        TolMAXD  ....  4.0000e-03 bohr
RMS Displacement         TolRMSD  ....  2.0000e-03 bohr
Strict Convergence                ....  False
------------------------------------------------------------------------------
                        ORCA OPTIMIZATION COORDINATE SETUP
------------------------------------------------------------------------------

The optimization will be done in new redundant internal coordinates
Making redundant internal coordinates   ...  (new redundants) done
Evaluating the initial hessian          ...  (Almloef) done
Evaluating the coordinates              ...  done
Calculating the B-matrix                .... done
Calculating the G-matrix                .... done
Diagonalizing the G-matrix              .... done
Imposing constraints:
 Iter   0:  RMS(Cart)=    0.0000622502 RMS(Int)=    0.0000436497
 Iter   1:  RMS(Cart)=    0.0000348612 RMS(Int)=    0.0000245956
 Iter   2:  RMS(Cart)=    0.0000196683 RMS(Int)=    0.0000145816
 Iter   3:  RMS(Cart)=    0.0000112318 RMS(Int)=    0.0000096156
 Iter   4:  RMS(Cart)=    0.0000065536 RMS(Int)=    0.0000073821
 Iter   5:  RMS(Cart)=    0.0000039760 RMS(Int)=    0.0000064473
 Iter   6:  RMS(Cart)=    0.0000025778 RMS(Int)=    0.0000060297
 Iter   7:  RMS(Cart)=    0.0000018385 RMS(Int)=    0.0000057949
 Iter   8:  RMS(Cart)=    0.0000014561 RMS(Int)=    0.0000056229
 Iter   9:  RMS(Cart)=    0.0000012561 RMS(Int)=    0.0000054736
 Iter  10:  RMS(Cart)=    0.0000011450 RMS(Int)=    0.0000053342
 Iter  11:  RMS(Cart)=    0.0000010766 RMS(Int)=    0.0000052002
 Iter  12:  RMS(Cart)=    0.0000010296 RMS(Int)=    0.0000050704
 Iter  13:  RMS(Cart)=    0.0000009935 RMS(Int)=    0.0000049442
 Iter  14:  RMS(Cart)=    0.0000009636 RMS(Int)=    0.0000048214
 Iter  15:  RMS(Cart)=    0.0000009372 RMS(Int)=    0.0000047017
 Iter  16:  RMS(Cart)=    0.0000009130 RMS(Int)=    0.0000045852
 Iter  17:  RMS(Cart)=    0.0000008903 RMS(Int)=    0.0000044718
 Iter  18:  RMS(Cart)=    0.0000008686 RMS(Int)=    0.0000043612
 Iter  19:  RMS(Cart)=    0.0000008476 RMS(Int)=    0.0000042536
 Iter  20:  RMS(Cart)=    0.0000008273 RMS(Int)=    0.0000041487
 Iter  21:  RMS(Cart)=    0.0000008076 RMS(Int)=    0.0000040465
 Iter  22:  RMS(Cart)=    0.0000007885 RMS(Int)=    0.0000039470
 Iter  23:  RMS(Cart)=    0.0000007698 RMS(Int)=    0.0000038500
 Iter  24:  RMS(Cart)=    0.0000007515 RMS(Int)=    0.0000037555
 Iter  25:  RMS(Cart)=    0.0000007337 RMS(Int)=    0.0000036635
 Iter  26:  RMS(Cart)=    0.0000007164 RMS(Int)=    0.0000035738
 Iter  27:  RMS(Cart)=    0.0000006994 RMS(Int)=    0.0000034864
 Iter  28:  RMS(Cart)=    0.0000006829 RMS(Int)=    0.0000034013
 Iter  29:  RMS(Cart)=    0.0000006667 RMS(Int)=    0.0000033183
 Iter  30:  RMS(Cart)=    0.0000006510 RMS(Int)=    0.0000032374
 Iter  31:  RMS(Cart)=    0.0000006356 RMS(Int)=    0.0000031587
 Iter  32:  RMS(Cart)=    0.0000006206 RMS(Int)=    0.0000030819
 Iter  33:  RMS(Cart)=    0.0000006059 RMS(Int)=    0.0000030070
 Iter  34:  RMS(Cart)=    0.0000005916 RMS(Int)=    0.0000029341
 Iter  35:  RMS(Cart)=    0.0000005776 RMS(Int)=    0.0000028630
 Iter  36:  RMS(Cart)=    0.0000005640 RMS(Int)=    0.0000027938
 Iter  37:  RMS(Cart)=    0.0000005507 RMS(Int)=    0.0000027262
 Iter  38:  RMS(Cart)=    0.0000005377 RMS(Int)=    0.0000026604
 Iter  39:  RMS(Cart)=    0.0000005250 RMS(Int)=    0.0000025963
 Iter  40:  RMS(Cart)=    0.0000005126 RMS(Int)=    0.0000025338
 Iter  41:  RMS(Cart)=    0.0000005005 RMS(Int)=    0.0000024728
 Iter  42:  RMS(Cart)=    0.0000004887 RMS(Int)=    0.0000024134
 Iter  43:  RMS(Cart)=    0.0000004772 RMS(Int)=    0.0000023555
 Iter  44:  RMS(Cart)=    0.0000004660 RMS(Int)=    0.0000022990
 Iter  45:  RMS(Cart)=    0.0000004550 RMS(Int)=    0.0000022440
 Iter  46:  RMS(Cart)=    0.0000004443 RMS(Int)=    0.0000021903
 Iter  47:  RMS(Cart)=    0.0000004338 RMS(Int)=    0.0000021380
 Iter  48:  RMS(Cart)=    0.0000004236 RMS(Int)=    0.0000020870
 Iter  49:  RMS(Cart)=    0.0000004136 RMS(Int)=    0.0000020373
 Iter  50:  RMS(Cart)=    0.0000004038 RMS(Int)=    0.0000019888
 Iter  51:  RMS(Cart)=    0.0000003943 RMS(Int)=    0.0000019416
 Iter  52:  RMS(Cart)=    0.0000003850 RMS(Int)=    0.0000018955
 Iter  53:  RMS(Cart)=    0.0000003760 RMS(Int)=    0.0000018506
 Iter  54:  RMS(Cart)=    0.0000003671 RMS(Int)=    0.0000018068
 Iter  55:  RMS(Cart)=    0.0000003585 RMS(Int)=    0.0000017640
 Iter  56:  RMS(Cart)=    0.0000003501 RMS(Int)=    0.0000017224
 Iter  57:  RMS(Cart)=    0.0000003418 RMS(Int)=    0.0000016818
 Iter  58:  RMS(Cart)=    0.0000003338 RMS(Int)=    0.0000016422
 Iter  59:  RMS(Cart)=    0.0000003259 RMS(Int)=    0.0000016036
 Iter  60:  RMS(Cart)=    0.0000003183 RMS(Int)=    0.0000015659
 Iter  61:  RMS(Cart)=    0.0000003108 RMS(Int)=    0.0000015292
 Iter  62:  RMS(Cart)=    0.0000003035 RMS(Int)=    0.0000014934
 Iter  63:  RMS(Cart)=    0.0000002963 RMS(Int)=    0.0000014584
 Iter  64:  RMS(Cart)=    0.0000002894 RMS(Int)=    0.0000014244
 Iter  65:  RMS(Cart)=    0.0000002826 RMS(Int)=    0.0000013912
 Iter  66:  RMS(Cart)=    0.0000002759 RMS(Int)=    0.0000013588
 Iter  67:  RMS(Cart)=    0.0000002695 RMS(Int)=    0.0000013272
 Iter  68:  RMS(Cart)=    0.0000002631 RMS(Int)=    0.0000012964
 Iter  69:  RMS(Cart)=    0.0000002570 RMS(Int)=    0.0000012663
 Iter  70:  RMS(Cart)=    0.0000002509 RMS(Int)=    0.0000012370
 Iter  71:  RMS(Cart)=    0.0000002450 RMS(Int)=    0.0000012084
 Iter  72:  RMS(Cart)=    0.0000002393 RMS(Int)=    0.0000011806
 Iter  73:  RMS(Cart)=    0.0000002337 RMS(Int)=    0.0000011534
 Iter  74:  RMS(Cart)=    0.0000002282 RMS(Int)=    0.0000011269
 Iter  75:  RMS(Cart)=    0.0000002229 RMS(Int)=    0.0000011010
 Iter  76:  RMS(Cart)=    0.0000002176 RMS(Int)=    0.0000010758
 Iter  77:  RMS(Cart)=    0.0000002125 RMS(Int)=    0.0000010511
 Iter  78:  RMS(Cart)=    0.0000002076 RMS(Int)=    0.0000010271
 Iter  79:  RMS(Cart)=    0.0000002027 RMS(Int)=    0.0000010037
 Iter  80:  RMS(Cart)=    0.0000001979 RMS(Int)=    0.0000009809
 Iter  81:  RMS(Cart)=    0.0000001933 RMS(Int)=    0.0000009586
 Iter  82:  RMS(Cart)=    0.0000001888 RMS(Int)=    0.0000009369
 Iter  83:  RMS(Cart)=    0.0000001844 RMS(Int)=    0.0000009157
 Iter  84:  RMS(Cart)=    0.0000001801 RMS(Int)=    0.0000008950
 Iter  85:  RMS(Cart)=    0.0000001759 RMS(Int)=    0.0000008748
 Iter  86:  RMS(Cart)=    0.0000001717 RMS(Int)=    0.0000008551
 Iter  87:  RMS(Cart)=    0.0000001677 RMS(Int)=    0.0000008359
 Iter  88:  RMS(Cart)=    0.0000001638 RMS(Int)=    0.0000008172
 Iter  89:  RMS(Cart)=    0.0000001600 RMS(Int)=    0.0000007989
 Iter  90:  RMS(Cart)=    0.0000001563 RMS(Int)=    0.0000007811
 Iter  91:  RMS(Cart)=    0.0000001526 RMS(Int)=    0.0000007637
 Iter  92:  RMS(Cart)=    0.0000001490 RMS(Int)=    0.0000007467
 Iter  93:  RMS(Cart)=    0.0000001456 RMS(Int)=    0.0000007302
 Iter  94:  RMS(Cart)=    0.0000001422 RMS(Int)=    0.0000007140
 Iter  95:  RMS(Cart)=    0.0000001389 RMS(Int)=    0.0000006982
 Iter  96:  RMS(Cart)=    0.0000001356 RMS(Int)=    0.0000006829
 Iter  97:  RMS(Cart)=    0.0000001325 RMS(Int)=    0.0000006679
 Iter  98:  RMS(Cart)=    0.0000001294 RMS(Int)=    0.0000006532
 Iter  99:  RMS(Cart)=    0.0000001264 RMS(Int)=    0.0000006389
 RMS(Cart) too big - taking linear step, building new B-matrix and trying again
Imposing constraints:
 Iter   0:  RMS(Cart)=    0.0000348612 RMS(Int)=    0.0000245956
 Iter   1:  RMS(Cart)=    0.0000196682 RMS(Int)=    0.0000145816
 Iter   2:  RMS(Cart)=    0.0000112318 RMS(Int)=    0.0000096156
 Iter   3:  RMS(Cart)=    0.0000065536 RMS(Int)=    0.0000073821
 Iter   4:  RMS(Cart)=    0.0000039760 RMS(Int)=    0.0000064473
 Iter   5:  RMS(Cart)=    0.0000025778 RMS(Int)=    0.0000060297
 Iter   6:  RMS(Cart)=    0.0000018385 RMS(Int)=    0.0000057949
 Iter   7:  RMS(Cart)=    0.0000014561 RMS(Int)=    0.0000056229
 Iter   8:  RMS(Cart)=    0.0000012561 RMS(Int)=    0.0000054736
 Iter   9:  RMS(Cart)=    0.0000011450 RMS(Int)=    0.0000053341
 Iter  10:  RMS(Cart)=    0.0000010766 RMS(Int)=    0.0000052002
 Iter  11:  RMS(Cart)=    0.0000010295 RMS(Int)=    0.0000050704
 Iter  12:  RMS(Cart)=    0.0000009935 RMS(Int)=    0.0000049442
 Iter  13:  RMS(Cart)=    0.0000009636 RMS(Int)=    0.0000048213
 Iter  14:  RMS(Cart)=    0.0000009372 RMS(Int)=    0.0000047017
 Iter  15:  RMS(Cart)=    0.0000009130 RMS(Int)=    0.0000045852
 Iter  16:  RMS(Cart)=    0.0000008903 RMS(Int)=    0.0000044717
 Iter  17:  RMS(Cart)=    0.0000008685 RMS(Int)=    0.0000043612
 Iter  18:  RMS(Cart)=    0.0000008476 RMS(Int)=    0.0000042536
 Iter  19:  RMS(Cart)=    0.0000008273 RMS(Int)=    0.0000041487
 Iter  20:  RMS(Cart)=    0.0000008076 RMS(Int)=    0.0000040465
 Iter  21:  RMS(Cart)=    0.0000007884 RMS(Int)=    0.0000039470
 Iter  22:  RMS(Cart)=    0.0000007697 RMS(Int)=    0.0000038500
 Iter  23:  RMS(Cart)=    0.0000007515 RMS(Int)=    0.0000037555
 Iter  24:  RMS(Cart)=    0.0000007337 RMS(Int)=    0.0000036635
 Iter  25:  RMS(Cart)=    0.0000007164 RMS(Int)=    0.0000035738
 Iter  26:  RMS(Cart)=    0.0000006994 RMS(Int)=    0.0000034864
 Iter  27:  RMS(Cart)=    0.0000006829 RMS(Int)=    0.0000034013
 Iter  28:  RMS(Cart)=    0.0000006667 RMS(Int)=    0.0000033183
 Iter  29:  RMS(Cart)=    0.0000006510 RMS(Int)=    0.0000032375
 Iter  30:  RMS(Cart)=    0.0000006356 RMS(Int)=    0.0000031587
 Iter  31:  RMS(Cart)=    0.0000006206 RMS(Int)=    0.0000030819
 Iter  32:  RMS(Cart)=    0.0000006059 RMS(Int)=    0.0000030070
 Iter  33:  RMS(Cart)=    0.0000005916 RMS(Int)=    0.0000029341
 Iter  34:  RMS(Cart)=    0.0000005776 RMS(Int)=    0.0000028630
 Iter  35:  RMS(Cart)=    0.0000005640 RMS(Int)=    0.0000027938
 Iter  36:  RMS(Cart)=    0.0000005507 RMS(Int)=    0.0000027263
 Iter  37:  RMS(Cart)=    0.0000005377 RMS(Int)=    0.0000026604
 Iter  38:  RMS(Cart)=    0.0000005250 RMS(Int)=    0.0000025963
 Iter  39:  RMS(Cart)=    0.0000005126 RMS(Int)=    0.0000025338
 Iter  40:  RMS(Cart)=    0.0000005005 RMS(Int)=    0.0000024728
 Iter  41:  RMS(Cart)=    0.0000004887 RMS(Int)=    0.0000024134
 Iter  42:  RMS(Cart)=    0.0000004772 RMS(Int)=    0.0000023555
 Iter  43:  RMS(Cart)=    0.0000004660 RMS(Int)=    0.0000022990
 Iter  44:  RMS(Cart)=    0.0000004550 RMS(Int)=    0.0000022440
 Iter  45:  RMS(Cart)=    0.0000004443 RMS(Int)=    0.0000021903
 Iter  46:  RMS(Cart)=    0.0000004338 RMS(Int)=    0.0000021380
 Iter  47:  RMS(Cart)=    0.0000004236 RMS(Int)=    0.0000020870
 Iter  48:  RMS(Cart)=    0.0000004136 RMS(Int)=    0.0000020373
 Iter  49:  RMS(Cart)=    0.0000004038 RMS(Int)=    0.0000019888
 Iter  50:  RMS(Cart)=    0.0000003943 RMS(Int)=    0.0000019416
 Iter  51:  RMS(Cart)=    0.0000003850 RMS(Int)=    0.0000018955
 Iter  52:  RMS(Cart)=    0.0000003760 RMS(Int)=    0.0000018506
 Iter  53:  RMS(Cart)=    0.0000003671 RMS(Int)=    0.0000018068
 Iter  54:  RMS(Cart)=    0.0000003585 RMS(Int)=    0.0000017641
 Iter  55:  RMS(Cart)=    0.0000003501 RMS(Int)=    0.0000017224
 Iter  56:  RMS(Cart)=    0.0000003418 RMS(Int)=    0.0000016818
 Iter  57:  RMS(Cart)=    0.0000003338 RMS(Int)=    0.0000016422
 Iter  58:  RMS(Cart)=    0.0000003259 RMS(Int)=    0.0000016036
 Iter  59:  RMS(Cart)=    0.0000003183 RMS(Int)=    0.0000015659
 Iter  60:  RMS(Cart)=    0.0000003108 RMS(Int)=    0.0000015292
 Iter  61:  RMS(Cart)=    0.0000003035 RMS(Int)=    0.0000014934
 Iter  62:  RMS(Cart)=    0.0000002963 RMS(Int)=    0.0000014585
 Iter  63:  RMS(Cart)=    0.0000002894 RMS(Int)=    0.0000014244
 Iter  64:  RMS(Cart)=    0.0000002826 RMS(Int)=    0.0000013912
 Iter  65:  RMS(Cart)=    0.0000002760 RMS(Int)=    0.0000013588
 Iter  66:  RMS(Cart)=    0.0000002695 RMS(Int)=    0.0000013272
 Iter  67:  RMS(Cart)=    0.0000002631 RMS(Int)=    0.0000012964
 Iter  68:  RMS(Cart)=    0.0000002570 RMS(Int)=    0.0000012664
 Iter  69:  RMS(Cart)=    0.0000002509 RMS(Int)=    0.0000012370
 Iter  70:  RMS(Cart)=    0.0000002450 RMS(Int)=    0.0000012085
 Iter  71:  RMS(Cart)=    0.0000002393 RMS(Int)=    0.0000011806
 Iter  72:  RMS(Cart)=    0.0000002337 RMS(Int)=    0.0000011534
 Iter  73:  RMS(Cart)=    0.0000002282 RMS(Int)=    0.0000011269
 Iter  74:  RMS(Cart)=    0.0000002229 RMS(Int)=    0.0000011010
 Iter  75:  RMS(Cart)=    0.0000002176 RMS(Int)=    0.0000010758
 Iter  76:  RMS(Cart)=    0.0000002125 RMS(Int)=    0.0000010512
 Iter  77:  RMS(Cart)=    0.0000002076 RMS(Int)=    0.0000010272
 Iter  78:  RMS(Cart)=    0.0000002027 RMS(Int)=    0.0000010037
 Iter  79:  RMS(Cart)=    0.0000001980 RMS(Int)=    0.0000009809
CONVERGED
Small eigenvalue found = 1.129e-02
Small eigenvalue found = 2.191e-02
The first mode is                       ....   80
The number of degrees of freedom        ....   69
Storing new coordinates                 .... done

    -----------------------------------------------------------------
                    Redundant Internal Coordinates


    -----------------------------------------------------------------
         Definition                    Initial Value    Approx d2E/dq
    -----------------------------------------------------------------
      1. B(C   1,C   0)                  1.5333         0.369027   
      2. B(C   2,C   1)                  1.5471         0.350825   
      3. B(C   3,C   2)                  1.5492         0.348147   
      4. B(O   4,C   0)                  1.4668         0.422031   
      5. B(O   4,C   3)                  1.4789         0.403699   
      6. B(H   5,C   0)                  1.0919         0.357632   
      7. B(H   6,C   1)                  1.0958         0.352561   
      8. B(H   7,C   1)                  1.0951         0.353431   
      9. B(H   8,C   2)                  1.0945         0.354166   
     10. B(H   9,C   2)                  1.0966         0.351438   
     11. B(H  10,C   3)                  1.0954         0.353010   
     12. B(H  11,C   3)                  1.0939         0.354989   
     13. B(H  13,C  12)                  1.1013         0.345481   
     14. B(C  14,C  12)                  1.5334         0.368898   
     15. B(C  15,C  14)                  1.5460         0.352258   
     16. B(C  16,C  15)                  1.5487         0.348703   
     17. B(O  17,C  12)                  1.4675         0.421013   
     18. B(O  17,C  16)                  1.4802         0.401742   
     19. B(H  18,C  12)                  1.0910         0.358803   
     20. B(O  19,C   0)                  1.4375         0.470069   
     21. B(O  19,C  14)                  1.4368         0.471257   
     22. B(H  20,C  14)                  1.0953         0.353117   
     23. B(H  21,C  15)                  1.0951         0.353358   
     24. B(H  22,C  15)                  1.0970         0.350971   
     25. B(H  23,C  16)                  1.0959         0.352379   
     26. B(H  24,C  16)                  1.0941         0.354776   
     27. A(C   1,C   0,H   5)          114.4376         0.323302   
     28. A(H   5,C   0,O  19)          109.1555         0.334458   
     29. A(O   4,C   0,H   5)          107.0215         0.328541   
     30. A(C   1,C   0,O   4)          104.2488         0.367935   
     31. A(O   4,C   0,O  19)          110.4634         0.381216   
     32. A(C   1,C   0,O  19)          111.3131         0.374825   
     33. A(C   2,C   1,H   7)          112.8319         0.320016   
     34. A(C   2,C   1,H   6)          110.6709         0.319888   
     35. A(C   0,C   1,H   6)          110.0677         0.322546   
     36. A(C   0,C   1,C   2)          101.6795         0.358729   
     37. A(C   0,C   1,H   7)          113.1244         0.322677   
     38. A(H   6,C   1,H   7)          108.3681         0.289027   
     39. A(C   1,C   2,H   9)          110.0800         0.319721   
     40. A(C   1,C   2,H   8)          112.8318         0.320125   
     41. A(C   3,C   2,H   8)          112.4039         0.319725   
     42. A(C   3,C   2,H   9)          110.6152         0.319321   
     43. A(H   8,C   2,H   9)          107.7728         0.288977   
     44. A(C   1,C   2,C   3)          103.1267         0.355196   
     45. A(C   2,C   3,H  10)          112.5253         0.319554   
     46. A(C   2,C   3,O   4)          106.5277         0.361529   
     47. A(O   4,C   3,H  10)          109.1298         0.325449   
     48. A(C   2,C   3,H  11)          112.4566         0.319846   
     49. A(O   4,C   3,H  11)          107.1237         0.325748   
     50. A(H  10,C   3,H  11)          108.8728         0.289284   
     51. A(C   0,O   4,C   3)          108.3145         0.371320   
     52. A(H  13,C  12,C  14)          111.3482         0.321458   
     53. A(H  13,C  12,O  17)          110.4130         0.326545   
     54. A(C  14,C  12,O  17)          104.2276         0.367761   
     55. A(H  13,C  12,H  18)          109.1610         0.288792   
     56. A(O  17,C  12,H  18)          106.9837         0.328588   
     57. A(C  14,C  12,H  18)          114.4975         0.323457   
     58. A(C  12,C  14,O  19)          110.0316         0.374965   
     59. A(C  15,C  14,O  19)          110.7033         0.371993   
     60. A(C  12,C  14,H  20)          113.0729         0.322611   
     61. A(C  15,C  14,H  20)          112.8352         0.320183   
     62. A(O  19,C  14,H  20)          108.3866         0.333893   
     63. A(C  12,C  14,C  15)          101.7124         0.358956   
     64. A(C  14,C  15,H  21)          112.8589         0.320219   
     65. A(C  16,C  15,H  21)          112.3626         0.319689   
     66. A(C  14,C  15,H  22)          110.1302         0.319864   
     67. A(C  16,C  15,H  22)          110.5988         0.319335   
     68. A(C  14,C  15,C  16)          103.1718         0.355538   
     69. A(H  21,C  15,H  22)          107.7140         0.288813   
     70. A(C  15,C  16,H  23)          112.5904         0.319544   
     71. A(H  23,C  16,H  24)          108.8576         0.289176   
     72. A(O  17,C  16,H  23)          109.0874         0.325093   
     73. A(C  15,C  16,H  24)          112.4842         0.319898   
     74. A(O  17,C  16,H  24)          107.1046         0.325456   
     75. A(C  15,C  16,O  17)          106.5050         0.361328   
     76. A(C  12,O  17,C  16)          108.2721         0.370856   
     77. A(C   0,O  19,C  14)          114.3334         0.388605   
     78. D(C   2,C   1,C   0,H   5)   -156.5747         0.010890   
     79. D(H   7,C   1,C   0,O   4)   -161.2882         0.010890   
     80. D(H   7,C   1,C   0,H   5)     82.1517         0.010890   
     81. D(H   6,C   1,C   0,O   4)     77.3259         0.010890   
     82. D(C   2,C   1,C   0,O  19)     79.0807         0.010890   
     83. D(C   2,C   1,C   0,O   4)    -40.0146         0.010890 C 
     84. D(H   6,C   1,C   0,O  19)   -163.5788         0.010890   
     85. D(H   7,C   1,C   0,O  19)    -42.1929         0.010890   
     86. D(H   6,C   1,C   0,H   5)    -39.2342         0.010890   
     87. D(H   9,C   2,C   1,H   7)     38.4578         0.009912   
     88. D(C   3,C   2,C   1,H   7)    156.5039         0.009912   
     89. D(H   8,C   2,C   1,H   7)    -81.9752         0.009912   
     90. D(H   8,C   2,C   1,C   0)    156.5478         0.009912   
     91. D(H   9,C   2,C   1,H   6)    160.0776         0.009912   
     92. D(C   3,C   2,C   1,H   6)    -81.8763         0.009912   
     93. D(H   9,C   2,C   1,C   0)    -83.0192         0.009912   
     94. D(H   8,C   2,C   1,H   6)     39.6446         0.009912   
     95. D(C   3,C   2,C   1,C   0)     35.0269         0.009912 C 
     96. D(H  10,C   3,C   2,H   9)    -20.0727         0.009774   
     97. D(O   4,C   3,C   2,H   9)     99.4739         0.009774   
     98. D(H  11,C   3,C   2,C   1)     98.8667         0.009774   
     99. D(H  10,C   3,C   2,C   1)   -137.7433         0.009774   
    100. D(O   4,C   3,C   2,C   1)    -18.1967         0.009774 C 
    101. D(H  11,C   3,C   2,H   8)    -22.9433         0.009774   
    102. D(H  11,C   3,C   2,H   9)   -143.4628         0.009774   
    103. D(H  10,C   3,C   2,H   8)    100.4468         0.009774   
    104. D(O   4,C   3,C   2,H   8)   -140.0066         0.009774   
    105. D(C   3,O   4,C   0,H   5)    151.2015         0.014035   
    106. D(C   3,O   4,C   0,C   1)     29.5919         0.014035 C 
    107. D(C   0,O   4,C   3,C   2)     -6.8731         0.012866 C 
    108. D(C   3,O   4,C   0,O  19)    -90.0792         0.014035   
    109. D(C   0,O   4,C   3,H  10)    114.8547         0.012866   
    110. D(C   0,O   4,C   3,H  11)   -127.4272         0.012866   
    111. D(C  15,C  14,C  12,H  13)     79.0119         0.010883   
    112. D(C  15,C  14,C  12,O  17)    -40.0288         0.010883 C 
    113. D(C  15,C  14,C  12,H  18)   -156.5602         0.010883   
    114. D(O  19,C  14,C  12,H  13)   -163.6087         0.010883   
    115. D(O  19,C  14,C  12,O  17)     77.3506         0.010883   
    116. D(O  19,C  14,C  12,H  18)    -39.1809         0.010883   
    117. D(H  20,C  14,C  12,H  13)    -42.2604         0.010883   
    118. D(H  20,C  14,C  12,O  17)   -161.3011         0.010883   
    119. D(H  20,C  14,C  12,H  18)     82.1674         0.010883   
    120. D(C  16,C  15,C  14,C  12)     35.0581         0.009987 C 
    121. D(C  16,C  15,C  14,O  19)    -81.8347         0.009987   
    122. D(C  16,C  15,C  14,H  20)    156.4957         0.009987   
    123. D(H  21,C  15,C  14,C  12)    156.5722         0.009987   
    124. D(H  21,C  15,C  14,O  19)     39.6793         0.009987   
    125. D(H  21,C  15,C  14,H  20)    -81.9903         0.009987   
    126. D(H  22,C  15,C  14,C  12)    -83.0164         0.009987   
    127. D(H  22,C  15,C  14,O  19)    160.0908         0.009987   
    128. D(H  22,C  15,C  14,H  20)     38.4212         0.009987   
    129. D(O  17,C  16,C  15,C  14)    -18.2070         0.009802 C 
    130. D(H  24,C  16,C  15,H  21)    -23.0147         0.009802   
    131. D(O  17,C  16,C  15,H  22)     99.5391         0.009802   
    132. D(H  23,C  16,C  15,C  14)   -137.7244         0.009802   
    133. D(H  23,C  16,C  15,H  21)    100.4266         0.009802   
    134. D(H  23,C  16,C  15,H  22)    -19.9784         0.009802   
    135. D(O  17,C  16,C  15,H  21)   -140.0560         0.009802   
    136. D(H  24,C  16,C  15,C  14)     98.8343         0.009802   
    137. D(H  24,C  16,C  15,H  22)   -143.4196         0.009802   
    138. D(C  16,O  17,C  12,H  13)    -90.0979         0.013969   
    139. D(C  16,O  17,C  12,C  14)     29.5770         0.013969 C 
    140. D(C  16,O  17,C  12,H  18)    151.2265         0.013969   
    141. D(C  12,O  17,C  16,C  15)     -6.8725         0.012745 C 
    142. D(C  12,O  17,C  16,H  23)    114.8961         0.012745   
    143. D(C  12,O  17,C  16,H  24)   -127.4368         0.012745   
    144. D(C  14,O  19,C   0,C   1)   -130.3143         0.017417   
    145. D(C  14,O  19,C   0,O   4)    -15.0000         0.017417 C 
    146. D(C  14,O  19,C   0,H   5)    102.4118         0.017417   
    147. D(C   0,O  19,C  14,C  12)   -150.0000         0.017507 C 
    148. D(C   0,O  19,C  14,C  15)    -38.3597         0.017507   
    149. D(C   0,O  19,C  14,H  20)     85.8911         0.017507   
    -----------------------------------------------------------------

Number of atoms                         .... 25
Number of degrees of freedom            .... 149

         *************************************************************
         *                GEOMETRY OPTIMIZATION CYCLE   1            *
         *************************************************************
---------------------------------
CARTESIAN COORDINATES (ANGSTROEM)
---------------------------------
  C    -21.048106   26.221979   46.251038
  C    -20.361023   27.557933   45.943996
  C    -20.328922   28.221959   47.340989
  C    -20.109968   27.021949   48.295986
  O    -20.473080   25.806971   47.535019
  H    -20.833187   25.427975   45.533018
  H    -19.344052   27.381856   45.575954
  H    -20.898014   28.156964   45.201014
  H    -19.542867   28.977907   47.433948
  H    -21.288880   28.710028   47.548022
  H    -20.732927   27.081999   49.195011
  H    -19.063963   26.912879   48.596943
  C    -24.479053   25.340936   47.268964
  H    -25.030085   25.158852   48.204929
  C    -23.040112   25.792070   47.547059
  C    -22.348017   24.449122   47.875039
  C    -23.063862   23.445083   46.937971
  O    -24.325906   24.091972   46.513919
  H    -25.054083   26.023902   46.641955
  O    -22.472085   26.381119   46.366096
  H    -22.968167   26.518032   48.364098
  H    -21.266013   24.476222   47.708085
  H    -22.517042   24.184076   48.926023
  H    -23.296795   22.497044   47.435928
  H    -22.488791   23.236169   46.030996

----------------------------
CARTESIAN COORDINATES (A.U.)
----------------------------
  NO LB      ZA    FRAG     MASS         X           Y           Z
   0 C     6.0000    0    12.011  -39.775156   49.552359   87.401795
   1 C     6.0000    0    12.011  -38.476757   52.076947   86.821571
   2 C     6.0000    0    12.011  -38.416096   53.331773   89.461503
   3 C     6.0000    0    12.011  -38.002331   51.064083   91.266187
   4 O     8.0000    0    15.999  -38.688514   48.768108   89.828167
   5 H     1.0000    0     1.008  -39.369019   48.051909   86.044933
   6 H     1.0000    0     1.008  -36.554960   51.744210   86.126071
   7 H     1.0000    0     1.008  -39.491522   53.208950   85.417537
   8 H     1.0000    0     1.008  -36.930667   54.760307   89.637172
   9 H     1.0000    0     1.008  -40.230153   54.254091   89.852739
  10 H     1.0000    0     1.008  -39.179553   51.177561   92.965098
  11 H     1.0000    0     1.008  -36.025668   50.857971   91.834914
  12 C     6.0000    0    12.011  -46.258706   47.887429   89.325397
  13 H     1.0000    0     1.008  -47.300006   47.543340   91.094114
  14 C     6.0000    0    12.011  -43.539501   48.739950   89.850921
  15 C     6.0000    0    12.011  -42.231633   46.202144   90.470712
  16 C     6.0000    0    12.011  -43.584383   44.304786   88.699910
  17 O     8.0000    0    15.999  -45.969300   45.527230   87.898568
  18 H     1.0000    0     1.008  -47.345356   49.178048   88.140522
  19 O     8.0000    0    15.999  -42.466087   49.853091   87.619224
  20 H     1.0000    0     1.008  -43.403546   50.111819   91.394900
  21 H     1.0000    0     1.008  -40.186940   46.253356   90.155215
  22 H     1.0000    0     1.008  -42.551042   45.701281   92.456785
  23 H     1.0000    0     1.008  -44.024563   42.513252   89.640913
  24 H     1.0000    0     1.008  -42.497656   43.909996   86.985976

--------------------------------
INTERNAL COORDINATES (ANGSTROEM)
--------------------------------
 C      0   0   0     0.000000000000     0.00000000     0.00000000
 C      1   0   0     1.533334275362     0.00000000     0.00000000
 C      2   1   0     1.547103422529   101.67907390     0.00000000
 C      3   2   1     1.549188819996   103.12737509    35.02687180
 O      1   2   3     1.466801281701   104.24948604   319.98542309
 H      1   2   3     1.091872245274   114.43876658   203.42640133
 H      2   1   3     1.095759553917   110.06782188   117.34000099
 H      2   1   3     1.095088580892   113.12442239   238.72597460
 H      3   2   1     1.094523183857   112.83161078   156.54780790
 H      3   2   1     1.096628013503   110.07982737   276.98070077
 H      4   3   2     1.095413164062   112.52534669   222.25678475
 H      4   3   2     1.093891219455   112.45670684    98.86663270
 C      1   2   3     3.685681212476   132.89482116    68.29349220
 H     13   1   2     1.101281526223   137.73207148   265.96881558
 C     13   1   2     1.533429489739    26.64489258   275.59717351
 C     15  13   1     1.545993855098   101.71324735   265.94882770
 C     16  15  13     1.548754661010   103.17071918    35.05816924
 O     13   1   2     1.467458687664    87.95328422   147.31119195
 H     13   1   2     1.090982584646   100.50064340    40.41436296
 O     15  13   1     1.436769292545   110.03154022    23.33080204
 H     15  13   1     1.095330543717   113.06980831   144.67532003
 H     16  15  13     1.095144739292   112.85909228   156.57297946
 H     16  15  13     1.096989972607   110.13054092   276.98459752
 H     17  16  15     1.095900086687   112.59038710   222.27571680
 H     17  16  15     1.094054386217   112.48418361    98.83447339

---------------------------
INTERNAL COORDINATES (A.U.)
---------------------------
 C      0   0   0     0.000000000000     0.00000000     0.00000000
 C      1   0   0     2.897581852189     0.00000000     0.00000000
 C      2   1   0     2.923601769431   101.67907390     0.00000000
 C      3   2   1     2.927542599525   103.12737509    35.02687180
 O      1   2   3     2.771852715300   104.24948604   319.98542309
 H      1   2   3     2.063339516798   114.43876658   203.42640133
 H      2   1   3     2.070685465531   110.06782188   117.34000099
 H      2   1   3     2.069417510270   113.12442239   238.72597460
 H      3   2   1     2.068349064717   112.83161078   156.54780790
 H      3   2   1     2.072326616307   110.07982737   276.98070077
 H      4   3   2     2.070030883569   112.52534669   222.25678475
 H      4   3   2     2.067154825070   112.45670684    98.86663270
 C      1   2   3     6.964928108519   132.89482116    68.29349220
 H     13   1   2     2.081120480908   137.73207148   265.96881558
 C     13   1   2     2.897761781285    26.64489258   275.59717351
 C     15  13   1     2.921504990860   101.71324735   265.94882770
 C     16  15  13     2.926722157943   103.17071918    35.05816924
 O     13   1   2     2.773095032528    87.95328422   147.31119195
 H     13   1   2     2.061658301858   100.50064340    40.41436296
 O     15  13   1     2.715100480538   110.03154022    23.33080204
 H     15  13   1     2.069874753745   113.06980831   144.67532003
 H     16  15  13     2.069523634267   112.85909228   156.57297946
 H     16  15  13     2.073010619885   110.13054092   276.98459752
 H     17  16  15     2.070951033978   112.59038710   222.27571680
 H     17  16  15     2.067463165565   112.48418361    98.83447339

---------------------
BASIS SET INFORMATION
---------------------
There are 3 groups of distinct atoms

 Group   1 Type C   : 10s4p contracted to 3s2p pattern {631/31}
 Group   2 Type O   : 10s4p contracted to 3s2p pattern {631/31}
 Group   3 Type H   : 4s contracted to 2s pattern {31}

Atom   0C    basis set group =>   1
Atom   1C    basis set group =>   1
Atom   2C    basis set group =>   1
Atom   3C    basis set group =>   1
Atom   4O    basis set group =>   2
Atom   5H    basis set group =>   3
Atom   6H    basis set group =>   3
Atom   7H    basis set group =>   3
Atom   8H    basis set group =>   3
Atom   9H    basis set group =>   3
Atom  10H    basis set group =>   3
Atom  11H    basis set group =>   3
Atom  12C    basis set group =>   1
Atom  13H    basis set group =>   3
Atom  14C    basis set group =>   1
Atom  15C    basis set group =>   1
Atom  16C    basis set group =>   1
Atom  17O    basis set group =>   2
Atom  18H    basis set group =>   3
Atom  19O    basis set group =>   2
Atom  20H    basis set group =>   3
Atom  21H    basis set group =>   3
Atom  22H    basis set group =>   3
Atom  23H    basis set group =>   3
Atom  24H    basis set group =>   3
------------------------------------------------------------------------------
                           ORCA GTO INTEGRAL CALCULATION
------------------------------------------------------------------------------

                         BASIS SET STATISTICS AND STARTUP INFO

 # of primitive gaussian shells          ...  210
 # of primitive gaussian functions       ...  298
 # of contracted shells                  ...   83
 # of contracted basis functions         ...  127
 Highest angular momentum                ...    1
 Maximum contraction depth               ...    6
 Integral package used                   ... LIBINT
 Integral threshhold            Thresh   ...  2.500e-11
 Primitive cut-off              TCut     ...  2.500e-12


------------------------------ INTEGRAL EVALUATION ----------------------------


 * One electron integrals 
 Pre-screening matrix                    ... done
 Shell pair data                         ... done (   0.003 sec)

-------------------------------------------------------------------------------
                                 ORCA SCF
-------------------------------------------------------------------------------

------------
SCF SETTINGS
------------
Hamiltonian:
 Density Functional     Method          .... DFT(GTOs)
 Exchange Functional    Exchange        .... B88
   X-Alpha parameter    XAlpha          ....  0.666667
   Becke's b parameter  XBeta           ....  0.004200
 Correlation Functional Correlation     .... LYP
 LDA part of GGA corr.  LDAOpt          .... VWN-5
 Gradients option       PostSCFGGA      .... off
 Hybrid DFT is turned on
   Fraction HF Exchange ScalHFX         ....  0.200000
   Scaling of DF-GGA-X  ScalDFX         ....  0.720000
   Scaling of DF-GGA-C  ScalDFC         ....  0.810000
   Scaling of DF-LDA-C  ScalLDAC        ....  1.000000
   Perturbative correction              ....  0.000000
   Density functional embedding theory  .... OFF
   NL short-range parameter             ....  4.800000


General Settings:
 Integral files         IntName         .... ensemble_345_210
 Hartree-Fock type      HFTyp           .... RHF
 Total Charge           Charge          ....    0
 Multiplicity           Mult            ....    1
 Number of Electrons    NEL             ....   86
 Basis Dimension        Dim             ....  127
 Nuclear Repulsion      ENuc            ....    697.3869376098 Eh

Convergence Acceleration:
 DIIS                   CNVDIIS         .... on
   Start iteration      DIISMaxIt       ....    12
   Startup error        DIISStart       ....  0.200000
   # of expansion vecs  DIISMaxEq       ....     5
   Bias factor          DIISBfac        ....   1.050
   Max. coefficient     DIISMaxC        ....  10.000
 Newton-Raphson         CNVNR           .... off
 SOSCF                  CNVSOSCF        .... on
   Start iteration      SOSCFMaxIt      ....   150
   Startup grad/error   SOSCFStart      ....  0.003300
 Level Shifting         CNVShift        .... on
   Level shift para.    LevelShift      ....    0.2500
   Turn off err/grad.   ShiftErr        ....    0.0010
 Zerner damping         CNVZerner       .... off
 Static damping         CNVDamp         .... on
   Fraction old density DampFac         ....    0.7000
   Max. Damping (<1)    DampMax         ....    0.9800
   Min. Damping (>=0)   DampMin         ....    0.0000
   Turn off err/grad.   DampErr         ....    0.1000
 Fernandez-Rico         CNVRico         .... off

SCF Procedure:
 Maximum # iterations   MaxIter         ....   125
 SCF integral mode      SCFMode         .... Direct
   Integral package                     .... LIBINT
 Reset frequency        DirectResetFreq ....    20
 Integral Threshold     Thresh          ....  2.500e-11 Eh
 Primitive CutOff       TCut            ....  2.500e-12 Eh

Convergence Tolerance:
 Convergence Check Mode ConvCheckMode   .... Total+1el-Energy
 Convergence forced     ConvForced      .... 0
 Energy Change          TolE            ....  1.000e-08 Eh
 1-El. energy change                    ....  1.000e-05 Eh
 Orbital Gradient       TolG            ....  1.000e-05
 Orbital Rotation angle TolX            ....  1.000e-05
 DIIS Error             TolErr          ....  5.000e-07


Diagonalization of the overlap matrix:
Smallest eigenvalue                        ... 4.233e-03
Time for diagonalization                   ...    0.003 sec
Threshold for overlap eigenvalues          ... 1.000e-08
Number of eigenvalues below threshold      ... 0
Time for construction of square roots      ...    0.003 sec
Total time needed                          ...    0.007 sec

-------------------
DFT GRID GENERATION
-------------------

General Integration Accuracy     IntAcc      ...  4.340
Radial Grid Type                 RadialGrid  ... Gauss-Chebyshev
Angular Grid (max. acc.)         AngularGrid ... Lebedev-110
Angular grid pruning method      GridPruning ... 3 (G Style)
Weight generation scheme         WeightScheme... Becke
Basis function cutoff            BFCut       ...    1.0000e-11
Integration weight cutoff        WCut        ...    1.0000e-14
Grids for H and He will be reduced by one unit

# of grid points (after initial pruning)     ...  29512 (   0.0 sec)
# of grid points (after weights+screening)   ...  26514 (   0.2 sec)
nearest neighbour list constructed           ...    0.0 sec
Grid point re-assignment to atoms done       ...    0.0 sec
Grid point division into batches done        ...    0.0 sec
Reduced shell lists constructed in    0.3 sec

Total number of grid points                  ...    26514
Total number of batches                      ...      427
Average number of points per batch           ...       62
Average number of grid points per atom       ...     1061
Average number of shells per batch           ...    57.05 (68.73%)
Average number of basis functions per batch  ...    92.08 (72.50%)
Average number of large shells per batch     ...    42.41 (74.34%)
Average number of large basis fcns per batch ...    70.09 (76.12%)
Maximum spatial batch extension              ...  19.44, 25.60, 20.71 au
Average spatial batch extension              ...   3.32,  3.50,  3.36 au

Time for grid setup =    0.486 sec

------------------------------
INITIAL GUESS: MODEL POTENTIAL
------------------------------
Loading Hartree-Fock densities                     ... done
Calculating cut-offs                               ... done
Setting up the integral package                    ... done
Initializing the effective Hamiltonian             ... done
Starting the Coulomb interaction                   ... done (   0.3 sec)
Reading the grid                                   ... done
Mapping shells                                     ... done
Starting the XC term evaluation                    ... done (   0.3 sec)
  promolecular density results
     # of electrons  =     86.001652852
     EX              =    -69.880427048
     EC              =     -2.918434497
     EX+EC           =    -72.798861544
Transforming the Hamiltonian                       ... done (   0.0 sec)
Diagonalizing the Hamiltonian                      ... done (   0.0 sec)
Back transforming the eigenvectors                 ... done (   0.0 sec)
Now organizing SCF variables                       ... done
                      ------------------
                      INITIAL GUESS DONE (   1.2 sec)
                      ------------------
--------------
SCF ITERATIONS
--------------
ITER       Energy         Delta-E        Max-DP      RMS-DP      [F,P]     Damp
               ***  Starting incremental Fock matrix formation  ***
  0   -538.1517567566   0.000000000000 0.06091921  0.00318750  0.1826097 0.7000
  1   -538.2641571559  -0.112400399304 0.03645386  0.00228494  0.0773943 0.7000
                               ***Turning on DIIS***
  2   -538.3091561153  -0.044998959451 0.06562915  0.00385347  0.0315642 0.0000
  3   -538.3794059443  -0.070249828982 0.02569697  0.00154365  0.0404694 0.0000
  4   -538.3951419885  -0.015736044185 0.00982576  0.00044778  0.0084060 0.0000
  5   -538.3957391702  -0.000597181714 0.00294577  0.00015594  0.0046737 0.0000
                      *** Initiating the SOSCF procedure ***
                           *** Shutting down DIIS ***
                      *** Re-Reading the Fockian *** 
                      *** Removing any level shift *** 
ITER      Energy       Delta-E        Grad      Rot      Max-DP    RMS-DP
  6   -538.39582018  -0.0000810124  0.000173  0.000173  0.000971  0.000064
               *** Restarting incremental Fock matrix formation ***
  7   -538.39582280  -0.0000026141  0.000077  0.000101  0.000630  0.000022
  8   -538.39582227   0.0000005246  0.000106  0.000057  0.000330  0.000013
  9   -538.39582343  -0.0000011567  0.000013  0.000018  0.000074  0.000004
 10   -538.39582341   0.0000000144  0.000017  0.000011  0.000046  0.000002
                  ***Gradient check signals convergence***
              ***Rediagonalizing the Fockian in SOSCF/NRSCF***

               *****************************************************
               *                     SUCCESS                       *
               *           SCF CONVERGED AFTER  11 CYCLES          *
               *****************************************************

Setting up the final grid:

General Integration Accuracy     IntAcc      ...  4.670
Radial Grid Type                 RadialGrid  ... Gauss-Chebyshev
Angular Grid (max. acc.)         AngularGrid ... Lebedev-302
Angular grid pruning method      GridPruning ... 3 (G Style)
Weight generation scheme         WeightScheme... Becke
Basis function cutoff            BFCut       ...    1.0000e-11
Integration weight cutoff        WCut        ...    1.0000e-14
Grids for H and He will be reduced by one unit

# of grid points (after initial pruning)     ... 115848 (   0.1 sec)
# of grid points (after weights+screening)   ... 102104 (   0.7 sec)
nearest neighbour list constructed           ...    0.0 sec
Grid point re-assignment to atoms done       ...    0.0 sec
Grid point division into batches done        ...    0.4 sec
Reduced shell lists constructed in    1.3 sec

Total number of grid points                  ...   102104
Total number of batches                      ...     1608
Average number of points per batch           ...       63
Average number of grid points per atom       ...     4084
Average number of shells per batch           ...    52.52 (63.28%)
Average number of basis functions per batch  ...    85.13 (67.03%)
Average number of large shells per batch     ...    37.91 (72.18%)
Average number of large basis fcns per batch ...    62.88 (73.87%)
Maximum spatial batch extension              ...  18.56, 20.57, 20.58 au
Average spatial batch extension              ...   2.23,  2.23,  2.26 au

Final grid set up in    2.1 sec
Final integration                            ... done (   1.2 sec)
Change in XC energy                          ...     0.000914414
Integrated number of electrons               ...    86.000035986
Previous integrated no of electrons          ...    86.007961161

----------------
TOTAL SCF ENERGY
----------------

Total Energy       :         -538.39490903 Eh          -14650.47029 eV

Components:
Nuclear Repulsion  :          697.38693761 Eh           18976.86334 eV
Electronic Energy  :        -1235.78184664 Eh          -33627.33363 eV
One Electron Energy:        -2117.40075160 Eh          -57617.40366 eV
Two Electron Energy:          881.61890496 Eh           23990.07004 eV

Virial components:
Potential Energy   :        -1074.36671294 Eh          -29235.00454 eV
Kinetic Energy     :          535.97180391 Eh           14584.53425 eV
Virial Ratio       :            2.00452096


DFT components:
N(Alpha)           :       43.000017992815 electrons
N(Beta)            :       43.000017992815 electrons
N(Total)           :       86.000035985629 electrons
E(X)               :      -56.525104239169 Eh       
E(C)               :       -3.431552913375 Eh       
E(XC)              :      -59.956657152545 Eh       
DFET-embed. en.    :        0.000000000000 Eh       

---------------
SCF CONVERGENCE
---------------

  Last Energy change         ...   -2.9030e-08  Tolerance :   1.0000e-08
  Last MAX-Density change    ...    1.1615e-05  Tolerance :   1.0000e-07
  Last RMS-Density change    ...    3.9274e-07  Tolerance :   5.0000e-09
  Last Orbital Gradient      ...    1.4105e-06  Tolerance :   1.0000e-05
  Last Orbital Rotation      ...    2.1549e-06  Tolerance :   1.0000e-05

             **** THE GBW FILE WAS UPDATED (ensemble_345_210.gbw) ****
             **** DENSITY FILE WAS UPDATED (ensemble_345_210.scfp) ****
             **** ENERGY FILE WAS UPDATED (ensemble_345_210.en.tmp) ****
             **** THE GBW FILE WAS UPDATED (ensemble_345_210.gbw) ****
             **** DENSITY FILE WAS UPDATED (ensemble_345_210.scfp) ****
----------------
ORBITAL ENERGIES
----------------

  NO   OCC          E(Eh)            E(eV) 
   0   2.0000     -19.157088      -521.2909 
   1   2.0000     -19.141493      -520.8665 
   2   2.0000     -19.113986      -520.1180 
   3   2.0000     -10.288049      -279.9521 
   4   2.0000     -10.239017      -278.6178 
   5   2.0000     -10.231484      -278.4128 
   6   2.0000     -10.213690      -277.9286 
   7   2.0000     -10.203949      -277.6636 
   8   2.0000     -10.196110      -277.4503 
   9   2.0000     -10.194034      -277.3938 
  10   2.0000     -10.150416      -276.2069 
  11   2.0000      -1.074270       -29.2324 
  12   2.0000      -1.010990       -27.5104 
  13   2.0000      -0.988859       -26.9082 
  14   2.0000      -0.802237       -21.8300 
  15   2.0000      -0.767276       -20.8786 
  16   2.0000      -0.739212       -20.1150 
  17   2.0000      -0.715969       -19.4825 
  18   2.0000      -0.617466       -16.8021 
  19   2.0000      -0.611866       -16.6497 
  20   2.0000      -0.584543       -15.9062 
  21   2.0000      -0.565020       -15.3750 
  22   2.0000      -0.531809       -14.4713 
  23   2.0000      -0.505545       -13.7566 
  24   2.0000      -0.487646       -13.2695 
  25   2.0000      -0.478253       -13.0139 
  26   2.0000      -0.453725       -12.3465 
  27   2.0000      -0.444030       -12.0827 
  28   2.0000      -0.423518       -11.5245 
  29   2.0000      -0.409695       -11.1484 
  30   2.0000      -0.403260       -10.9733 
  31   2.0000      -0.390538       -10.6271 
  32   2.0000      -0.379295       -10.3211 
  33   2.0000      -0.370986       -10.0950 
  34   2.0000      -0.360699        -9.8151 
  35   2.0000      -0.354237        -9.6393 
  36   2.0000      -0.353147        -9.6096 
  37   2.0000      -0.319136        -8.6841 
  38   2.0000      -0.300152        -8.1676 
  39   2.0000      -0.284211        -7.7338 
  40   2.0000      -0.255625        -6.9559 
  41   2.0000      -0.248366        -6.7584 
  42   2.0000      -0.222659        -6.0589 
  43   0.0000       0.068794         1.8720 
  44   0.0000       0.092590         2.5195 
  45   0.0000       0.098714         2.6861 
  46   0.0000       0.107694         2.9305 
  47   0.0000       0.118099         3.2136 
  48   0.0000       0.129744         3.5305 
  49   0.0000       0.133531         3.6336 
  50   0.0000       0.141171         3.8414 
  51   0.0000       0.151438         4.1208 
  52   0.0000       0.155458         4.2302 
  53   0.0000       0.158448         4.3116 
  54   0.0000       0.168927         4.5967 
  55   0.0000       0.176674         4.8075 
  56   0.0000       0.180362         4.9079 
  57   0.0000       0.198643         5.4054 
  58   0.0000       0.206191         5.6107 
  59   0.0000       0.214302         5.8314 
  60   0.0000       0.218685         5.9507 
  61   0.0000       0.225978         6.1492 
  62   0.0000       0.233969         6.3666 
  63   0.0000       0.257183         6.9983 
  64   0.0000       0.262169         7.1340 
  65   0.0000       0.279072         7.5939 
  66   0.0000       0.288640         7.8543 
  67   0.0000       0.297132         8.0854 
  68   0.0000       0.317911         8.6508 
  69   0.0000       0.525886        14.3101 
  70   0.0000       0.530772        14.4430 
  71   0.0000       0.538524        14.6540 
  72   0.0000       0.561896        15.2900 
  73   0.0000       0.566649        15.4193 
  74   0.0000       0.578665        15.7463 
  75   0.0000       0.585198        15.9241 
  76   0.0000       0.589296        16.0356 
  77   0.0000       0.599019        16.3001 
  78   0.0000       0.612941        16.6790 
  79   0.0000       0.618238        16.8231 
  80   0.0000       0.622638        16.9428 
  81   0.0000       0.640322        17.4240 
  82   0.0000       0.652428        17.7535 
  83   0.0000       0.679601        18.4929 
  84   0.0000       0.711921        19.3724 
  85   0.0000       0.730375        19.8745 
  86   0.0000       0.765031        20.8175 
  87   0.0000       0.801257        21.8033 
  88   0.0000       0.812798        22.1173 
  89   0.0000       0.822803        22.3896 
  90   0.0000       0.826258        22.4836 
  91   0.0000       0.853922        23.2364 
  92   0.0000       0.859491        23.3879 
  93   0.0000       0.866519        23.5792 
  94   0.0000       0.890236        24.2246 
  95   0.0000       0.902626        24.5617 
  96   0.0000       0.907258        24.6878 
  97   0.0000       0.923412        25.1273 
  98   0.0000       0.930314        25.3151 
  99   0.0000       0.938331        25.5333 
 100   0.0000       0.946479        25.7550 
 101   0.0000       0.954557        25.9748 
 102   0.0000       0.968459        26.3531 
 103   0.0000       0.975660        26.5491 
 104   0.0000       0.994544        27.0629 
 105   0.0000       1.020707        27.7748 
 106   0.0000       1.027669        27.9643 
 107   0.0000       1.045714        28.4553 
 108   0.0000       1.090079        29.6626 
 109   0.0000       1.136023        30.9127 
 110   0.0000       1.154606        31.4184 
 111   0.0000       1.214624        33.0516 
 112   0.0000       1.268899        34.5285 
 113   0.0000       1.309376        35.6299 
 114   0.0000       1.327006        36.1097 
 115   0.0000       1.354698        36.8632 
 116   0.0000       1.395209        37.9656 
 117   0.0000       1.436345        39.0849 
 118   0.0000       1.536650        41.8144 
 119   0.0000       1.545704        42.0608 
 120   0.0000       1.570955        42.7479 
 121   0.0000       1.675649        45.5967 
 122   0.0000       1.695088        46.1257 
 123   0.0000       1.704527        46.3825 
 124   0.0000       1.915548        52.1247 
 125   0.0000       2.089103        56.8474 
 126   0.0000       2.224628        60.5352 

                    ********************************
                    * MULLIKEN POPULATION ANALYSIS *
                    ********************************

-----------------------
MULLIKEN ATOMIC CHARGES
-----------------------
   0 C :    0.293330
   1 C :   -0.249600
   2 C :   -0.305112
   3 C :   -0.002666
   4 O :   -0.540211
   5 H :    0.161065
   6 H :    0.146002
   7 H :    0.165327
   8 H :    0.148248
   9 H :    0.160729
  10 H :    0.145056
  11 H :    0.150256
  12 C :    0.000049
  13 H :    0.124180
  14 C :    0.078072
  15 C :   -0.332788
  16 C :   -0.001666
  17 O :   -0.523819
  18 H :    0.160088
  19 O :   -0.523876
  20 H :    0.120570
  21 H :    0.248577
  22 H :    0.118987
  23 H :    0.126595
  24 H :    0.132607
Sum of atomic charges:    0.0000000

--------------------------------
MULLIKEN REDUCED ORBITAL CHARGES
--------------------------------
  0 C s       :     3.200225  s :     3.200225
      pz      :     0.784169  p :     2.506444
      px      :     0.692468
      py      :     1.029807
  1 C s       :     3.305215  s :     3.305215
      pz      :     0.973346  p :     2.944385
      px      :     1.031393
      py      :     0.939646
  2 C s       :     3.318440  s :     3.318440
      pz      :     0.911451  p :     2.986672
      px      :     1.088778
      py      :     0.986444
  3 C s       :     3.262107  s :     3.262107
      pz      :     0.933391  p :     2.740560
      px      :     1.064679
      py      :     0.742490
  4 O s       :     3.932327  s :     3.932327
      pz      :     1.334260  p :     4.607884
      px      :     1.764292
      py      :     1.509333
  5 H s       :     0.838935  s :     0.838935
  6 H s       :     0.853998  s :     0.853998
  7 H s       :     0.834673  s :     0.834673
  8 H s       :     0.851752  s :     0.851752
  9 H s       :     0.839271  s :     0.839271
 10 H s       :     0.854944  s :     0.854944
 11 H s       :     0.849744  s :     0.849744
 12 C s       :     3.268067  s :     3.268067
      pz      :     0.974487  p :     2.731884
      px      :     0.952192
      py      :     0.805205
 13 H s       :     0.875820  s :     0.875820
 14 C s       :     3.253599  s :     3.253599
      pz      :     0.793261  p :     2.668329
      px      :     0.910152
      py      :     0.964917
 15 C s       :     3.329812  s :     3.329812
      pz      :     1.008893  p :     3.002975
      px      :     1.131125
      py      :     0.862958
 16 C s       :     3.261439  s :     3.261439
      pz      :     1.011126  p :     2.740227
      px      :     0.766880
      py      :     0.962221
 17 O s       :     3.937802  s :     3.937802
      pz      :     1.704711  p :     4.586017
      px      :     1.500358
      py      :     1.380948
 18 H s       :     0.839912  s :     0.839912
 19 O s       :     3.937410  s :     3.937410
      pz      :     1.528894  p :     4.586466
      px      :     1.276479
      py      :     1.781093
 20 H s       :     0.879430  s :     0.879430
 21 H s       :     0.751423  s :     0.751423
 22 H s       :     0.881013  s :     0.881013
 23 H s       :     0.873405  s :     0.873405
 24 H s       :     0.867393  s :     0.867393


                     *******************************
                     * LOEWDIN POPULATION ANALYSIS *
                     *******************************

----------------------
LOEWDIN ATOMIC CHARGES
----------------------
   0 C :    0.184932
   1 C :   -0.211465
   2 C :   -0.216984
   3 C :   -0.030149
   4 O :   -0.323298
   5 H :    0.104648
   6 H :    0.115196
   7 H :    0.128815
   8 H :    0.117626
   9 H :    0.117269
  10 H :    0.101394
  11 H :    0.106894
  12 C :   -0.034322
  13 H :    0.091785
  14 C :    0.035094
  15 C :   -0.274412
  16 C :   -0.034943
  17 O :   -0.337074
  18 H :    0.118438
  19 O :   -0.318188
  20 H :    0.088705
  21 H :    0.177138
  22 H :    0.104714
  23 H :    0.094222
  24 H :    0.093964

-------------------------------
LOEWDIN REDUCED ORBITAL CHARGES
-------------------------------
  0 C s       :     2.954294  s :     2.954294
      pz      :     0.907651  p :     2.860773
      px      :     0.860655
      py      :     1.092467
  1 C s       :     2.977073  s :     2.977073
      pz      :     1.073595  p :     3.234391
      px      :     1.107618
      py      :     1.053178
  2 C s       :     2.972474  s :     2.972474
      pz      :     1.033753  p :     3.244511
      px      :     1.133248
      py      :     1.077510
  3 C s       :     2.983673  s :     2.983673
      pz      :     1.037602  p :     3.046476
      px      :     1.123540
      py      :     0.885333
  4 O s       :     3.601010  s :     3.601010
      pz      :     1.392596  p :     4.722288
      px      :     1.784768
      py      :     1.544923
  5 H s       :     0.895352  s :     0.895352
  6 H s       :     0.884804  s :     0.884804
  7 H s       :     0.871185  s :     0.871185
  8 H s       :     0.882374  s :     0.882374
  9 H s       :     0.882731  s :     0.882731
 10 H s       :     0.898606  s :     0.898606
 11 H s       :     0.893106  s :     0.893106
 12 C s       :     2.985425  s :     2.985425
      pz      :     1.058416  p :     3.048897
      px      :     1.072856
      py      :     0.917624
 13 H s       :     0.908215  s :     0.908215
 14 C s       :     2.952259  s :     2.952259
      pz      :     0.919645  p :     3.012647
      px      :     1.039956
      py      :     1.053045
 15 C s       :     2.991007  s :     2.991007
      pz      :     1.095266  p :     3.283405
      px      :     1.170879
      py      :     1.017260
 16 C s       :     2.984380  s :     2.984380
      pz      :     1.095843  p :     3.050564
      px      :     0.893846
      py      :     1.060875
 17 O s       :     3.604413  s :     3.604413
      pz      :     1.745639  p :     4.732661
      px      :     1.551374
      py      :     1.435648
 18 H s       :     0.881562  s :     0.881562
 19 O s       :     3.564844  s :     3.564844
      pz      :     1.585443  p :     4.753344
      px      :     1.356443
      py      :     1.811458
 20 H s       :     0.911295  s :     0.911295
 21 H s       :     0.822862  s :     0.822862
 22 H s       :     0.895286  s :     0.895286
 23 H s       :     0.905778  s :     0.905778
 24 H s       :     0.906036  s :     0.906036


                      *****************************
                      * MAYER POPULATION ANALYSIS *
                      *****************************

  NA   - Mulliken gross atomic population
  ZA   - Total nuclear charge
  QA   - Mulliken gross atomic charge
  VA   - Mayer's total valence
  BVA  - Mayer's bonded valence
  FA   - Mayer's free valence

  ATOM       NA         ZA         QA         VA         BVA        FA
  0 C      5.7067     6.0000     0.2933     3.6167     3.6167    -0.0000
  1 C      6.2496     6.0000    -0.2496     3.7195     3.7195     0.0000
  2 C      6.3051     6.0000    -0.3051     3.7624     3.7624     0.0000
  3 C      6.0027     6.0000    -0.0027     3.6404     3.6404     0.0000
  4 O      8.5402     8.0000    -0.5402     1.7462     1.7462     0.0000
  5 H      0.8389     1.0000     0.1611     0.9245     0.9245    -0.0000
  6 H      0.8540     1.0000     0.1460     0.9330     0.9330     0.0000
  7 H      0.8347     1.0000     0.1653     0.9367     0.9367    -0.0000
  8 H      0.8518     1.0000     0.1482     0.9363     0.9363    -0.0000
  9 H      0.8393     1.0000     0.1607     0.9331     0.9331     0.0000
 10 H      0.8549     1.0000     0.1451     0.9292     0.9292     0.0000
 11 H      0.8497     1.0000     0.1503     0.9298     0.9298     0.0000
 12 C      6.0000     6.0000     0.0000     3.6562     3.6562     0.0000
 13 H      0.8758     1.0000     0.1242     0.9263     0.9263     0.0000
 14 C      5.9219     6.0000     0.0781     3.6286     3.6286    -0.0000
 15 C      6.3328     6.0000    -0.3328     3.6490     3.6490     0.0000
 16 C      6.0017     6.0000    -0.0017     3.6520     3.6520     0.0000
 17 O      8.5238     8.0000    -0.5238     1.7717     1.7717    -0.0000
 18 H      0.8399     1.0000     0.1601     0.9333     0.9333    -0.0000
 19 O      8.5239     8.0000    -0.5239     1.7126     1.7126     0.0000
 20 H      0.8794     1.0000     0.1206     0.9337     0.9337    -0.0000
 21 H      0.7514     1.0000     0.2486     0.9145     0.9145     0.0000
 22 H      0.8810     1.0000     0.1190     0.9419     0.9419     0.0000
 23 H      0.8734     1.0000     0.1266     0.9284     0.9284     0.0000
 24 H      0.8674     1.0000     0.1326     0.9301     0.9301     0.0000

  Mayer bond orders larger than 0.100000
B(  0-C ,  1-C ) :   0.9438 B(  0-C ,  4-O ) :   0.8529 B(  0-C ,  5-H ) :   0.9205 
B(  0-C , 19-O ) :   0.8631 B(  1-C ,  2-C ) :   0.9495 B(  1-C ,  6-H ) :   0.9350 
B(  1-C ,  7-H ) :   0.9350 B(  2-C ,  3-C ) :   0.9532 B(  2-C ,  8-H ) :   0.9445 
B(  2-C ,  9-H ) :   0.9444 B(  3-C ,  4-O ) :   0.8099 B(  3-C , 10-H ) :   0.9311 
B(  3-C , 11-H ) :   0.9422 B( 12-C , 13-H ) :   0.9149 B( 12-C , 14-C ) :   0.9337 
B( 12-C , 17-O ) :   0.8758 B( 12-C , 18-H ) :   0.9313 B( 14-C , 15-C ) :   0.9352 
B( 14-C , 19-O ) :   0.8128 B( 14-C , 20-H ) :   0.9207 B( 15-C , 16-C ) :   0.9308 
B( 15-C , 21-H ) :   0.8641 B( 15-C , 22-H ) :   0.9428 B( 16-C , 17-O ) :   0.8499 
B( 16-C , 23-H ) :   0.9340 B( 16-C , 24-H ) :   0.9390 

-------
TIMINGS
-------

Total SCF time: 0 days 0 hours 1 min 7 sec 

Total time                  ....      67.747 sec
Sum of individual times     ....      67.376 sec  ( 99.5%)

Fock matrix formation       ....      64.007 sec  ( 94.5%)
  XC integration            ....       5.208 sec  (  8.1% of F)
    Basis function eval.    ....       2.266 sec  ( 43.5% of XC)
    Density eval.           ....       0.923 sec  ( 17.7% of XC)
    XC-Functional eval.     ....       0.484 sec  (  9.3% of XC)
    XC-Potential eval.      ....       1.089 sec  ( 20.9% of XC)
Diagonalization             ....       0.025 sec  (  0.0%)
Density matrix formation    ....       0.004 sec  (  0.0%)
Population analysis         ....       0.019 sec  (  0.0%)
Initial guess               ....       0.697 sec  (  1.0%)
Orbital Transformation      ....       0.000 sec  (  0.0%)
Orbital Orthonormalization  ....       0.000 sec  (  0.0%)
DIIS solution               ....       0.022 sec  (  0.0%)
SOSCF solution              ....       0.012 sec  (  0.0%)
Grid generation             ....       2.592 sec  (  3.8%)

-------------------------   --------------------
FINAL SINGLE POINT ENERGY      -538.394909029861
-------------------------   --------------------

------------------------------------------------------------------------------
                         ORCA SCF GRADIENT CALCULATION
------------------------------------------------------------------------------

Gradient of the Kohn-Sham DFT energy:
Kohn-Sham wavefunction type      ... RKS
Hartree-Fock exchange scaling    ...    0.200
Number of operators              ...    1
Number of atoms                  ...   25
Basis set dimensions             ...  127
Integral neglect threshold       ... 2.5e-11
Integral primitive cutoff        ... 2.5e-12

Nuclear repulsion gradient       ... done
One Electron Gradient            ... done
Pre-screening matrix             ... done
Starting the two electron gradient:
Two electron gradient done
Exchange-correlation gradient    ... done

------------------
CARTESIAN GRADIENT
------------------

   1   C   :   -0.012370268    0.000061549    0.006152017
   2   C   :    0.005595644   -0.001956406   -0.002578424
   3   C   :    0.000641772    0.000197732   -0.001399502
   4   C   :   -0.008056314   -0.007724971   -0.002577764
   5   O   :   -0.041552289   -0.050580957    0.013837593
   6   H   :   -0.001154775    0.001386757   -0.000454156
   7   H   :    0.000381570    0.002267695    0.000108601
   8   H   :    0.001161557    0.002862307   -0.001274407
   9   H   :   -0.000434573    0.000747197    0.000014143
  10   H   :   -0.000672065    0.000828527    0.000817073
  11   H   :    0.000305989    0.001779714    0.000644520
  12   H   :   -0.000057131    0.000417915   -0.000003951
  13   C   :   -0.003892741    0.001724581    0.008714070
  14   H   :   -0.002902237   -0.001875174   -0.001092176
  15   C   :    0.005715120    0.014255742   -0.016897649
  16   C   :    0.021852945    0.034498233    0.001430880
  17   C   :    0.005859902   -0.002681402   -0.004205403
  18   O   :    0.002668860    0.001197442   -0.001780203
  19   H   :   -0.001428730   -0.001620003    0.000616709
  20   O   :   -0.000031786   -0.012700905    0.011840261
  21   H   :    0.002623141    0.000649147   -0.003249933
  22   H   :    0.023179382    0.016952011   -0.008951976
  23   H   :    0.002591655   -0.001497489   -0.001195067
  24   H   :   -0.000088253    0.000733257    0.000463614
  25   H   :    0.000063625    0.000077501    0.001021128

Difference to translation invariance:
           :   -0.0000000000   -0.0000000000   -0.0000000001

Norm of the cartesian gradient     ...    0.0920859699
RMS gradient                       ...    0.0106331719
MAX gradient                       ...    0.0505809569

-------
TIMINGS
-------

Total SCF gradient time            ...       22.875 sec

One electron gradient       ....       0.223 sec  (  1.0%)
Prescreening matrices       ....       0.045 sec  (  0.2%)
Two electron gradient       ....      13.674 sec  ( 59.8%)
XC gradient                 ....       8.782 sec  ( 38.4%)
------------------------------------------------------------------------------
                         ORCA GEOMETRY RELAXATION STEP
------------------------------------------------------------------------------

Reading the OPT-File                    .... done
Getting information on internals        .... done
Copying old internal coords+grads       .... done
Making the new internal coordinates     .... (new redundants).... done
Validating the new internal coordinates .... (new redundants).... done
Calculating the B-matrix                .... done
Calculating the G,G- and P matrices     .... done
Transforming gradient to internals      .... done
Projecting the internal gradient        .... done
Number of atoms                         ....  25
Number of internal coordinates          .... 149
Current Energy                          ....  -538.394909030 Eh
Current gradient norm                   ....     0.092085970 Eh/bohr
Maximum allowed component of the step   ....  0.300
Current trust radius                    ....  0.300
Evaluating the initial hessian          ....  (Almloef) done
Projecting the Hessian                  .... done
Forming the augmented Hessian           .... done
Diagonalizing the augmented Hessian     .... done
Last element of RFO vector              ....  0.861478130
Lowest eigenvalues of augmented Hessian:
 -0.165893085  0.033182879  0.033607973  0.041346940  0.041828716
Length of the computed step             ....  0.589445811
Warning: the length of the step is outside the trust region - taking restricted step instead
The input lambda is                     ....    -0.165893
   iter:   1  x=   -0.327477  g=    1.593266 f(x)=     0.257446
   iter:   2  x=   -0.493983  g=    0.596562 f(x)=     0.099331
   iter:   3  x=   -0.594851  g=    0.292213 f(x)=     0.029475
   iter:   4  x=   -0.618046  g=    0.204966 f(x)=     0.004754
   iter:   5  x=   -0.618971  g=    0.190062 f(x)=     0.000176
   iter:   6  x=   -0.618973  g=    0.189498 f(x)=     0.000000
   iter:   7  x=   -0.618973  g=    0.189497 f(x)=     0.000000
   iter:   8  x=   -0.618973  g=    0.189497 f(x)=     0.000000
The output lambda is                    ....    -0.618973 (8 iterations)
The final length of the internal step   ....  0.300000000
Converting the step to cartesian space:
 Initial RMS(Int)=    0.0245769576
Transforming coordinates:
 Iter   0:  RMS(Cart)=    0.2681485035 RMS(Int)=    0.0237822641
 Iter   1:  RMS(Cart)=    0.0468597856 RMS(Int)=    0.0076045370
 Iter   2:  RMS(Cart)=    0.0091465608 RMS(Int)=    0.0038732866
 Iter   3:  RMS(Cart)=    0.0015961204 RMS(Int)=    0.0002083366
 Iter   4:  RMS(Cart)=    0.0003000119 RMS(Int)=    0.0001420272
 Iter   5:  RMS(Cart)=    0.0000580001 RMS(Int)=    0.0000081623
 Iter   6:  RMS(Cart)=    0.0000104355 RMS(Int)=    0.0000051271
 Iter   7:  RMS(Cart)=    0.0000020659 RMS(Int)=    0.0000003828
 Iter   8:  RMS(Cart)=    0.0000003690 RMS(Int)=    0.0000001778
 Iter   9:  RMS(Cart)=    0.0000000734 RMS(Int)=    0.0000000186
Imposing constraints:
 Iter   0:  RMS(Cart)=    0.0001641477 RMS(Int)=    0.0001057413
 Iter   1:  RMS(Cart)=    0.0000860011 RMS(Int)=    0.0000614440
 Iter   2:  RMS(Cart)=    0.0000474871 RMS(Int)=    0.0000443048
 Iter   3:  RMS(Cart)=    0.0000277384 RMS(Int)=    0.0000381981
 Iter   4:  RMS(Cart)=    0.0000173692 RMS(Int)=    0.0000357593
 Iter   5:  RMS(Cart)=    0.0000119115 RMS(Int)=    0.0000344124
 Iter   6:  RMS(Cart)=    0.0000090691 RMS(Int)=    0.0000333960
 Iter   7:  RMS(Cart)=    0.0000075858 RMS(Int)=    0.0000324937
 Iter   8:  RMS(Cart)=    0.0000067792 RMS(Int)=    0.0000316427
 Iter   9:  RMS(Cart)=    0.0000063023 RMS(Int)=    0.0000308237
 Iter  10:  RMS(Cart)=    0.0000059886 RMS(Int)=    0.0000300302
 Iter  11:  RMS(Cart)=    0.0000057587 RMS(Int)=    0.0000292596
 Iter  12:  RMS(Cart)=    0.0000055741 RMS(Int)=    0.0000285105
 Iter  13:  RMS(Cart)=    0.0000054154 RMS(Int)=    0.0000277821
 Iter  14:  RMS(Cart)=    0.0000052721 RMS(Int)=    0.0000270736
 Iter  15:  RMS(Cart)=    0.0000051388 RMS(Int)=    0.0000263845
 Iter  16:  RMS(Cart)=    0.0000050123 RMS(Int)=    0.0000257140
 Iter  17:  RMS(Cart)=    0.0000048910 RMS(Int)=    0.0000250616
 Iter  18:  RMS(Cart)=    0.0000047736 RMS(Int)=    0.0000244268
 Iter  19:  RMS(Cart)=    0.0000046597 RMS(Int)=    0.0000238092
 Iter  20:  RMS(Cart)=    0.0000045489 RMS(Int)=    0.0000232081
 Iter  21:  RMS(Cart)=    0.0000044409 RMS(Int)=    0.0000226232
 Iter  22:  RMS(Cart)=    0.0000043356 RMS(Int)=    0.0000220539
 Iter  23:  RMS(Cart)=    0.0000042328 RMS(Int)=    0.0000214998
 Iter  24:  RMS(Cart)=    0.0000041326 RMS(Int)=    0.0000209606
 Iter  25:  RMS(Cart)=    0.0000040347 RMS(Int)=    0.0000204357
 Iter  26:  RMS(Cart)=    0.0000039391 RMS(Int)=    0.0000199248
 Iter  27:  RMS(Cart)=    0.0000038458 RMS(Int)=    0.0000194274
 Iter  28:  RMS(Cart)=    0.0000037547 RMS(Int)=    0.0000189433
 Iter  29:  RMS(Cart)=    0.0000036658 RMS(Int)=    0.0000184720
 Iter  30:  RMS(Cart)=    0.0000035789 RMS(Int)=    0.0000180132
 Iter  31:  RMS(Cart)=    0.0000034942 RMS(Int)=    0.0000175664
 Iter  32:  RMS(Cart)=    0.0000034114 RMS(Int)=    0.0000171315
 Iter  33:  RMS(Cart)=    0.0000033305 RMS(Int)=    0.0000167081
 Iter  34:  RMS(Cart)=    0.0000032516 RMS(Int)=    0.0000162958
 Iter  35:  RMS(Cart)=    0.0000031745 RMS(Int)=    0.0000158943
 Iter  36:  RMS(Cart)=    0.0000030993 RMS(Int)=    0.0000155034
 Iter  37:  RMS(Cart)=    0.0000030258 RMS(Int)=    0.0000151228
 Iter  38:  RMS(Cart)=    0.0000029541 RMS(Int)=    0.0000147521
 Iter  39:  RMS(Cart)=    0.0000028840 RMS(Int)=    0.0000143912
 Iter  40:  RMS(Cart)=    0.0000028157 RMS(Int)=    0.0000140396
 Iter  41:  RMS(Cart)=    0.0000027489 RMS(Int)=    0.0000136973
 Iter  42:  RMS(Cart)=    0.0000026837 RMS(Int)=    0.0000133639
 Iter  43:  RMS(Cart)=    0.0000026200 RMS(Int)=    0.0000130392
 Iter  44:  RMS(Cart)=    0.0000025579 RMS(Int)=    0.0000127230
 Iter  45:  RMS(Cart)=    0.0000024972 RMS(Int)=    0.0000124150
 Iter  46:  RMS(Cart)=    0.0000024379 RMS(Int)=    0.0000121150
 Iter  47:  RMS(Cart)=    0.0000023801 RMS(Int)=    0.0000118228
 Iter  48:  RMS(Cart)=    0.0000023236 RMS(Int)=    0.0000115381
 Iter  49:  RMS(Cart)=    0.0000022684 RMS(Int)=    0.0000112609
 Iter  50:  RMS(Cart)=    0.0000022146 RMS(Int)=    0.0000109909
 Iter  51:  RMS(Cart)=    0.0000021620 RMS(Int)=    0.0000107278
 Iter  52:  RMS(Cart)=    0.0000021107 RMS(Int)=    0.0000104716
 Iter  53:  RMS(Cart)=    0.0000020605 RMS(Int)=    0.0000102219
 Iter  54:  RMS(Cart)=    0.0000020116 RMS(Int)=    0.0000099788
 Iter  55:  RMS(Cart)=    0.0000019638 RMS(Int)=    0.0000097419
 Iter  56:  RMS(Cart)=    0.0000019172 RMS(Int)=    0.0000095111
 Iter  57:  RMS(Cart)=    0.0000018717 RMS(Int)=    0.0000092862
 Iter  58:  RMS(Cart)=    0.0000018272 RMS(Int)=    0.0000090672
 Iter  59:  RMS(Cart)=    0.0000017838 RMS(Int)=    0.0000088538
 Iter  60:  RMS(Cart)=    0.0000017414 RMS(Int)=    0.0000086459
 Iter  61:  RMS(Cart)=    0.0000017001 RMS(Int)=    0.0000084433
[...]
E(X)               :      -56.486519884184 Eh       
E(C)               :       -3.424249608581 Eh       
E(XC)              :      -59.910769492765 Eh       
DFET-embed. en.    :        0.000000000000 Eh       

---------------
SCF CONVERGENCE
---------------

  Last Energy change         ...   -1.8068e-08  Tolerance :   1.0000e-08
  Last MAX-Density change    ...    7.5479e-06  Tolerance :   1.0000e-07
  Last RMS-Density change    ...    3.0461e-07  Tolerance :   5.0000e-09
  Last Orbital Gradient      ...    1.0317e-06  Tolerance :   1.0000e-05
  Last Orbital Rotation      ...    1.6747e-06  Tolerance :   1.0000e-05

             **** THE GBW FILE WAS UPDATED (ensemble_345_210.gbw) ****
             **** DENSITY FILE WAS UPDATED (ensemble_345_210.scfp) ****
             **** ENERGY FILE WAS UPDATED (ensemble_345_210.en.tmp) ****
             **** THE GBW FILE WAS UPDATED (ensemble_345_210.gbw) ****
             **** DENSITY FILE WAS UPDATED (ensemble_345_210.scfp) ****
----------------
ORBITAL ENERGIES
----------------

  NO   OCC          E(Eh)            E(eV) 
   0   2.0000     -19.151919      -521.1502 
   1   2.0000     -19.134019      -520.6631 
   2   2.0000     -19.121755      -520.3294 
   3   2.0000     -10.280831      -279.7556 
   4   2.0000     -10.238446      -278.6023 
   5   2.0000     -10.234304      -278.4896 
   6   2.0000     -10.215531      -277.9787 
   7   2.0000     -10.214363      -277.9470 
   8   2.0000     -10.191553      -277.3262 
   9   2.0000     -10.186063      -277.1769 
  10   2.0000     -10.174536      -276.8632 
  11   2.0000      -1.053371       -28.6637 
  12   2.0000      -1.009044       -27.4575 
  13   2.0000      -0.984519       -26.7901 
  14   2.0000      -0.794535       -21.6204 
  15   2.0000      -0.775278       -21.0964 
  16   2.0000      -0.741285       -20.1714 
  17   2.0000      -0.718375       -19.5480 
  18   2.0000      -0.615285       -16.7428 
  19   2.0000      -0.603617       -16.4252 
  20   2.0000      -0.591823       -16.1043 
  21   2.0000      -0.560854       -15.2616 
  22   2.0000      -0.521853       -14.2003 
  23   2.0000      -0.495242       -13.4762 
  24   2.0000      -0.487744       -13.2722 
  25   2.0000      -0.481965       -13.1149 
  26   2.0000      -0.452906       -12.3242 
  27   2.0000      -0.444680       -12.1004 
  28   2.0000      -0.418122       -11.3777 
  29   2.0000      -0.409685       -11.1481 
  30   2.0000      -0.405331       -11.0296 
  31   2.0000      -0.386792       -10.5251 
  32   2.0000      -0.370244       -10.0749 
  33   2.0000      -0.362039        -9.8516 
  34   2.0000      -0.360738        -9.8162 
  35   2.0000      -0.358594        -9.7578 
  36   2.0000      -0.347138        -9.4461 
  37   2.0000      -0.327165        -8.9026 
  38   2.0000      -0.304307        -8.2806 
  39   2.0000      -0.290677        -7.9097 
  40   2.0000      -0.262638        -7.1467 
  41   2.0000      -0.247882        -6.7452 
  42   2.0000      -0.229358        -6.2411 
  43   0.0000       0.069879         1.9015 
  44   0.0000       0.095857         2.6084 
  45   0.0000       0.103420         2.8142 
  46   0.0000       0.103974         2.8293 
  47   0.0000       0.119524         3.2524 
  48   0.0000       0.121933         3.3180 
  49   0.0000       0.138232         3.7615 
  50   0.0000       0.145904         3.9703 
  51   0.0000       0.150989         4.1086 
  52   0.0000       0.153440         4.1753 
  53   0.0000       0.157186         4.2772 
  54   0.0000       0.166451         4.5294 
  55   0.0000       0.171196         4.6585 
  56   0.0000       0.177828         4.8390 
  57   0.0000       0.185442         5.0461 
  58   0.0000       0.199199         5.4205 
  59   0.0000       0.205448         5.5905 
  60   0.0000       0.220140         5.9903 
  61   0.0000       0.224237         6.1018 
  62   0.0000       0.232766         6.3339 
  63   0.0000       0.248557         6.7636 
  64   0.0000       0.256799         6.9878 
  65   0.0000       0.268736         7.3127 
  66   0.0000       0.279638         7.6093 
  67   0.0000       0.296601         8.0709 
  68   0.0000       0.309800         8.4301 
  69   0.0000       0.511656        13.9229 
  70   0.0000       0.522968        14.2307 
  71   0.0000       0.538734        14.6597 
  72   0.0000       0.561765        15.2864 
  73   0.0000       0.568136        15.4598 
  74   0.0000       0.570969        15.5368 
  75   0.0000       0.581338        15.8190 
  76   0.0000       0.584806        15.9134 
  77   0.0000       0.593869        16.1600 
  78   0.0000       0.602521        16.3954 
  79   0.0000       0.611905        16.6508 
  80   0.0000       0.624130        16.9835 
  81   0.0000       0.640523        17.4295 
  82   0.0000       0.650849        17.7105 
  83   0.0000       0.674634        18.3577 
  84   0.0000       0.687360        18.7040 
  85   0.0000       0.720846        19.6152 
  86   0.0000       0.743468        20.2308 
  87   0.0000       0.798768        21.7356 
  88   0.0000       0.806416        21.9437 
  89   0.0000       0.814255        22.1570 
  90   0.0000       0.823886        22.4191 
  91   0.0000       0.858928        23.3726 
  92   0.0000       0.865389        23.5484 
  93   0.0000       0.866864        23.5886 
  94   0.0000       0.882611        24.0171 
  95   0.0000       0.895963        24.3804 
  96   0.0000       0.903588        24.5879 
  97   0.0000       0.911152        24.7937 
  98   0.0000       0.929486        25.2926 
  99   0.0000       0.932096        25.3636 
 100   0.0000       0.938559        25.5395 
 101   0.0000       0.954983        25.9864 
 102   0.0000       0.963160        26.2089 
 103   0.0000       0.969695        26.3867 
 104   0.0000       0.994965        27.0744 
 105   0.0000       1.000503        27.2251 
 106   0.0000       1.006706        27.3939 
 107   0.0000       1.021466        27.7955 
 108   0.0000       1.068128        29.0652 
 109   0.0000       1.121304        30.5122 
 110   0.0000       1.155369        31.4392 
 111   0.0000       1.182633        32.1811 
 112   0.0000       1.252474        34.0816 
 113   0.0000       1.289295        35.0835 
 114   0.0000       1.308085        35.5948 
 115   0.0000       1.351681        36.7811 
 116   0.0000       1.395570        37.9754 
 117   0.0000       1.416831        38.5539 
 118   0.0000       1.500051        40.8185 
 119   0.0000       1.516811        41.2745 
 120   0.0000       1.528646        41.5966 
 121   0.0000       1.629637        44.3447 
 122   0.0000       1.652729        44.9730 
 123   0.0000       1.759989        47.8917 
 124   0.0000       1.894356        51.5480 
 125   0.0000       2.101798        57.1928 
 126   0.0000       2.158490        58.7355 

                    ********************************
                    * MULLIKEN POPULATION ANALYSIS *
                    ********************************

-----------------------
MULLIKEN ATOMIC CHARGES
-----------------------
   0 C :    0.312545
   1 C :   -0.257439
   2 C :   -0.306295
   3 C :   -0.015398
   4 O :   -0.517586
   5 H :    0.156017
   6 H :    0.144076
   7 H :    0.163728
   8 H :    0.146743
   9 H :    0.156400
  10 H :    0.144453
  11 H :    0.152110
  12 C :    0.004526
  13 H :    0.120563
  14 C :    0.090703
  15 C :   -0.329768
  16 C :   -0.000323
  17 O :   -0.521216
  18 H :    0.166402
  19 O :   -0.547539
  20 H :    0.124745
  21 H :    0.201074
  22 H :    0.133224
  23 H :    0.133146
  24 H :    0.145107
Sum of atomic charges:   -0.0000000

--------------------------------
MULLIKEN REDUCED ORBITAL CHARGES
--------------------------------
  0 C s       :     3.190982  s :     3.190982
      pz      :     0.831924  p :     2.496473
      px      :     0.659637
      py      :     1.004912
  1 C s       :     3.304626  s :     3.304626
      pz      :     0.962250  p :     2.952813
      px      :     1.059481
      py      :     0.931083
  2 C s       :     3.316494  s :     3.316494
      pz      :     0.929213  p :     2.989801
      px      :     1.070958
      py      :     0.989630
  3 C s       :     3.267093  s :     3.267093
      pz      :     0.940998  p :     2.748305
      px      :     1.057469
      py      :     0.749838
  4 O s       :     3.938979  s :     3.938979
      pz      :     1.394237  p :     4.578607
      px      :     1.660278
      py      :     1.524092
  5 H s       :     0.843983  s :     0.843983
  6 H s       :     0.855924  s :     0.855924
  7 H s       :     0.836272  s :     0.836272
  8 H s       :     0.853257  s :     0.853257
  9 H s       :     0.843600  s :     0.843600
 10 H s       :     0.855547  s :     0.855547
 11 H s       :     0.847890  s :     0.847890
 12 C s       :     3.265365  s :     3.265365
      pz      :     0.982581  p :     2.730109
      px      :     0.943678
      py      :     0.803851
 13 H s       :     0.879437  s :     0.879437
 14 C s       :     3.253932  s :     3.253932
      pz      :     0.831788  p :     2.655365
      px      :     0.872606
      py      :     0.950971
 15 C s       :     3.319450  s :     3.319450
      pz      :     0.988902  p :     3.010318
      px      :     1.123212
      py      :     0.898204
 16 C s       :     3.259396  s :     3.259396
      pz      :     0.957319  p :     2.740927
      px      :     0.840817
      py      :     0.942791
 17 O s       :     3.940641  s :     3.940641
      pz      :     1.666132  p :     4.580574
      px      :     1.570922
      py      :     1.343521
 18 H s       :     0.833598  s :     0.833598
 19 O s       :     3.916041  s :     3.916041
      pz      :     1.554910  p :     4.631498
      px      :     1.299315
      py      :     1.777272
 20 H s       :     0.875255  s :     0.875255
 21 H s       :     0.798926  s :     0.798926
 22 H s       :     0.866776  s :     0.866776
 23 H s       :     0.866854  s :     0.866854
 24 H s       :     0.854893  s :     0.854893


                     *******************************
                     * LOEWDIN POPULATION ANALYSIS *
                     *******************************

----------------------
LOEWDIN ATOMIC CHARGES
----------------------
   0 C :    0.185276
   1 C :   -0.216454
   2 C :   -0.218004
   3 C :   -0.032149
   4 O :   -0.322138
   5 H :    0.102764
   6 H :    0.113287
   7 H :    0.127678
   8 H :    0.116975
   9 H :    0.115720
  10 H :    0.102748
  11 H :    0.107110
  12 C :   -0.034705
  13 H :    0.088643
  14 C :    0.047409
  15 C :   -0.249398
  16 C :   -0.029728
  17 O :   -0.332175
  18 H :    0.121993
  19 O :   -0.341465
  20 H :    0.093192
  21 H :    0.142005
  22 H :    0.111288
  23 H :    0.097543
  24 H :    0.102582

-------------------------------
LOEWDIN REDUCED ORBITAL CHARGES
-------------------------------
  0 C s       :     2.951894  s :     2.951894
      pz      :     0.942038  p :     2.862829
      px      :     0.832051
      py      :     1.088741
  1 C s       :     2.979454  s :     2.979454
      pz      :     1.068577  p :     3.237000
      px      :     1.117927
      py      :     1.050496
  2 C s       :     2.971235  s :     2.971235
      pz      :     1.045010  p :     3.246769
      px      :     1.123482
      py      :     1.078276
  3 C s       :     2.987071  s :     2.987071
      pz      :     1.035865  p :     3.045078
      px      :     1.120676
      py      :     0.888537
  4 O s       :     3.600883  s :     3.600883
      pz      :     1.451427  p :     4.721255
      px      :     1.699692
      py      :     1.570136
  5 H s       :     0.897236  s :     0.897236
  6 H s       :     0.886713  s :     0.886713
  7 H s       :     0.872322  s :     0.872322
  8 H s       :     0.883025  s :     0.883025
  9 H s       :     0.884280  s :     0.884280
 10 H s       :     0.897252  s :     0.897252
 11 H s       :     0.892890  s :     0.892890
 12 C s       :     2.986563  s :     2.986563
      pz      :     1.061592  p :     3.048142
      px      :     1.070839
      py      :     0.915712
 13 H s       :     0.911357  s :     0.911357
 14 C s       :     2.955394  s :     2.955394
      pz      :     0.946654  p :     2.997197
      px      :     1.002005
      py      :     1.048537
 15 C s       :     2.980241  s :     2.980241
      pz      :     1.086656  p :     3.269157
      px      :     1.149380
      py      :     1.033120
 16 C s       :     2.982702  s :     2.982702
      pz      :     1.053892  p :     3.047025
      px      :     0.948037
      py      :     1.045097
 17 O s       :     3.605444  s :     3.605444
      pz      :     1.707721  p :     4.726731
      px      :     1.617367
      py      :     1.401643
 18 H s       :     0.878007  s :     0.878007
 19 O s       :     3.569000  s :     3.569000
      pz      :     1.603570  p :     4.772465
      px      :     1.367505
      py      :     1.801390
 20 H s       :     0.906808  s :     0.906808
 21 H s       :     0.857995  s :     0.857995
 22 H s       :     0.888712  s :     0.888712
 23 H s       :     0.902457  s :     0.902457
 24 H s       :     0.897418  s :     0.897418


                      *****************************
                      * MAYER POPULATION ANALYSIS *
                      *****************************

  NA   - Mulliken gross atomic population
  ZA   - Total nuclear charge
  QA   - Mulliken gross atomic charge
  VA   - Mayer's total valence
  BVA  - Mayer's bonded valence
  FA   - Mayer's free valence

  ATOM       NA         ZA         QA         VA         BVA        FA
  0 C      5.6875     6.0000     0.3125     3.6432     3.6432    -0.0000
  1 C      6.2574     6.0000    -0.2574     3.7179     3.7179    -0.0000
  2 C      6.3063     6.0000    -0.3063     3.7686     3.7686    -0.0000
  3 C      6.0154     6.0000    -0.0154     3.6533     3.6533    -0.0000
  4 O      8.5176     8.0000    -0.5176     1.7943     1.7943     0.0000
  5 H      0.8440     1.0000     0.1560     0.9262     0.9262     0.0000
  6 H      0.8559     1.0000     0.1441     0.9340     0.9340     0.0000
  7 H      0.8363     1.0000     0.1637     0.9391     0.9391     0.0000
  8 H      0.8533     1.0000     0.1467     0.9366     0.9366    -0.0000
  9 H      0.8436     1.0000     0.1564     0.9340     0.9340    -0.0000
 10 H      0.8555     1.0000     0.1445     0.9274     0.9274    -0.0000
 11 H      0.8479     1.0000     0.1521     0.9280     0.9280    -0.0000
 12 C      5.9955     6.0000     0.0045     3.6435     3.6435    -0.0000
 13 H      0.8794     1.0000     0.1206     0.9267     0.9267    -0.0000
 14 C      5.9093     6.0000     0.0907     3.6524     3.6524     0.0000
 15 C      6.3298     6.0000    -0.3298     3.6963     3.6963    -0.0000
 16 C      6.0003     6.0000    -0.0003     3.6669     3.6669     0.0000
 17 O      8.5212     8.0000    -0.5212     1.7789     1.7789    -0.0000
 18 H      0.8336     1.0000     0.1664     0.9353     0.9353     0.0000
 19 O      8.5475     8.0000    -0.5475     1.7156     1.7156     0.0000
 20 H      0.8753     1.0000     0.1247     0.9327     0.9327     0.0000
 21 H      0.7989     1.0000     0.2011     0.9450     0.9450    -0.0000
 22 H      0.8668     1.0000     0.1332     0.9359     0.9359     0.0000
 23 H      0.8669     1.0000     0.1331     0.9274     0.9274     0.0000
 24 H      0.8549     1.0000     0.1451     0.9283     0.9283    -0.0000

  Mayer bond orders larger than 0.100000
B(  0-C ,  1-C ) :   0.9373 B(  0-C ,  4-O ) :   0.8906 B(  0-C ,  5-H ) :   0.9257 
B(  0-C , 19-O ) :   0.8468 B(  1-C ,  2-C ) :   0.9542 B(  1-C ,  6-H ) :   0.9362 
B(  1-C ,  7-H ) :   0.9357 B(  2-C ,  3-C ) :   0.9554 B(  2-C ,  8-H ) :   0.9444 
B(  2-C ,  9-H ) :   0.9453 B(  3-C ,  4-O ) :   0.8279 B(  3-C , 10-H ) :   0.9345 
B(  3-C , 11-H ) :   0.9396 B( 12-C , 13-H ) :   0.9143 B( 12-C , 14-C ) :   0.9314 
B( 12-C , 17-O ) :   0.8739 B( 12-C , 18-H ) :   0.9300 B( 14-C , 15-C ) :   0.9404 
B( 14-C , 19-O ) :   0.8238 B( 14-C , 20-H ) :   0.9241 B( 15-C , 16-C ) :   0.9445 
B( 15-C , 21-H ) :   0.9064 B( 15-C , 22-H ) :   0.9360 B( 16-C , 17-O ) :   0.8579 
B( 16-C , 23-H ) :   0.9335 B( 16-C , 24-H ) :   0.9368 

-------
TIMINGS
-------

Total SCF time: 0 days 0 hours 0 min 27 sec 

Total time                  ....      27.016 sec
Sum of individual times     ....      26.588 sec  ( 98.4%)

Fock matrix formation       ....      23.966 sec  ( 88.7%)
  XC integration            ....       2.650 sec  ( 11.1% of F)
    Basis function eval.    ....       1.221 sec  ( 46.1% of XC)
    Density eval.           ....       0.470 sec  ( 17.7% of XC)
    XC-Functional eval.     ....       0.252 sec  (  9.5% of XC)
    XC-Potential eval.      ....       0.537 sec  ( 20.3% of XC)
Diagonalization             ....       0.004 sec  (  0.0%)
Density matrix formation    ....       0.002 sec  (  0.0%)
Population analysis         ....       0.019 sec  (  0.1%)
Initial guess               ....       0.004 sec  (  0.0%)
Orbital Transformation      ....       0.000 sec  (  0.0%)
Orbital Orthonormalization  ....       0.002 sec  (  0.0%)
DIIS solution               ....       0.001 sec  (  0.0%)
SOSCF solution              ....       0.010 sec  (  0.0%)
Grid generation             ....       2.583 sec  (  9.6%)

-------------------------   --------------------
FINAL SINGLE POINT ENERGY      -538.428538050258
-------------------------   --------------------

                                *** OPTIMIZATION RUN DONE ***

                            ***************************************
                            *     ORCA property calculations      *
                            ***************************************

                                    ---------------------
                                    Active property flags
                                    ---------------------
   (+) Dipole Moment


------------------------------------------------------------------------------
                       ORCA ELECTRIC PROPERTIES CALCULATION
------------------------------------------------------------------------------

Dipole Moment Calculation                       ... on
Quadrupole Moment Calculation                   ... off
Polarizability Calculation                      ... off
GBWName                                         ... ensemble_345_210.gbw
Electron density file                           ... ensemble_345_210.scfp
The origin for moment calculation is the CENTER OF MASS  = (-41.510554, 48.808588 88.949547)

-------------
DIPOLE MOMENT
-------------
                                X             Y             Z
Electronic contribution:     -1.75047      -2.13525      -2.37430
Nuclear contribution   :      2.53435       3.00554       3.26199
                        -----------------------------------------
Total Dipole Moment    :      0.78388       0.87029       0.88769
                        -----------------------------------------
Magnitude (a.u.)       :      1.46965
Magnitude (Debye)      :      3.73556



--------------------
Rotational spectrum 
--------------------
 
Rotational constants in cm-1:     0.082143     0.022578     0.021032 
Rotational constants in MHz :  2462.588132   676.880078   630.527986 

 Dipole components along the rotational axes: 
x,y,z [a.u.] :     1.185582    -0.369682     0.785881 
x,y,z [Debye]:     3.013510    -0.939657     1.997550 

 

Timings for individual modules:

Sum of individual times         ...      511.522 sec (=   8.525 min)
GTO integral calculation        ...        2.542 sec (=   0.042 min)   0.5 %
SCF iterations                  ...      355.988 sec (=   5.933 min)  69.6 %
SCF Gradient evaluation         ...      151.963 sec (=   2.533 min)  29.7 %
Geometry relaxation             ...        1.030 sec (=   0.017 min)   0.2 %
                             ****ORCA TERMINATED NORMALLY****
TOTAL RUN TIME: 0 days 0 hours 8 minutes 32 seconds 817 msec
