
                                 *****************
                                 * O   R   C   A *
                                 *****************

           --- An Ab Initio, DFT and Semiempirical electronic structure package ---

                  #######################################################
                  #                        -***-                        #
                  #          Department of theory and spectroscopy      #
                  #               Directorship: Frank Neese             #
                  #        Max Planck Institute fuer Kohlenforschung    #
                  #                Kaiser Wilhelm Platz 1               #
                  #                 D-45470 Muelheim/Ruhr               #
                  #                      Germany                        #
                  #                                                     #
                  #                  All rights reserved                #
                  #                        -***-                        #
                  #######################################################


                         Program Version 4.2.0 -  RELEASE  -


 With contributions from (in alphabetic order):
   Daniel Aravena         : Magnetic Suceptibility
   Michael Atanasov       : Ab Initio Ligand Field Theory (pilot matlab implementation)
   Alexander A. Auer      : GIAO ZORA, VPT2
   Ute Becker             : Parallelization
   Giovanni Bistoni       : ED, misc. LED, open-shell LED, HFLED
   Martin Brehm           : Molecular dynamics
   Dmytro Bykov           : SCF Hessian
   Vijay G. Chilkuri      : MRCI spin determinant printing, contributions to CSF-ICE
   Dipayan Datta          : RHF DLPNO-CCSD density
   Achintya Kumar Dutta   : EOM-CC, STEOM-CC
   Dmitry Ganyushin       : Spin-Orbit,Spin-Spin,Magnetic field MRCI
   Miquel Garcia          : C-PCM Hessian, Gaussian charge scheme
   Yang Guo               : DLPNO-NEVPT2, CIM, IAO-localization
   Andreas Hansen         : Spin unrestricted coupled pair/coupled cluster methods
   Benjamin Helmich-Paris : CASSCF linear response (MC-RPA)
   Lee Huntington         : MR-EOM, pCC
   Robert Izsak           : Overlap fitted RIJCOSX, COSX-SCS-MP3, EOM
   Christian Kollmar      : KDIIS, OOCD, Brueckner-CCSD(T), CCSD density
   Simone Kossmann        : Meta GGA functionals, TD-DFT gradient, OOMP2, MP2 Hessian
   Martin Krupicka        : AUTO-CI
   Lucas Lang             : DCDCAS
   Dagmar Lenk            : GEPOL surface, SMD
   Dimitrios Liakos       : Extrapolation schemes; Compound Job, initial MDCI parallelization
   Dimitrios Manganas     : Further ROCIS development; embedding schemes
   Dimitrios Pantazis     : SARC Basis sets
   Taras Petrenko         : DFT Hessian,TD-DFT gradient, ASA, ECA, R-Raman, ABS, FL, XAS/XES, NRVS
   Peter Pinski           : DLPNO-MP2, DLPNO-MP2 Gradient
   Christoph Reimann      : Effective Core Potentials
   Marius Retegan         : Local ZFS, SOC
   Christoph Riplinger    : Optimizer, TS searches, QM/MM, DLPNO-CCSD(T), (RO)-DLPNO pert. Triples
   Tobias Risthaus        : Range-separated hybrids, TD-DFT gradient, RPA, STAB
   Michael Roemelt        : Original ROCIS implementation
   Masaaki Saitow         : Open-shell DLPNO-CCSD energy and density
   Barbara Sandhoefer     : DKH picture change effects
   Avijit Sen             : IP-ROCIS
   Kantharuban Sivalingam : CASSCF convergence, NEVPT2, FIC-MRCI
   Bernardo de Souza      : ESD, SOC TD-DFT
   Georgi Stoychev        : AutoAux, RI-MP2 NMR
   Willem Van den Heuvel  : Paramagnetic NMR
   Boris Wezisla          : Elementary symmetry handling
   Frank Wennmohs         : Technical directorship


 We gratefully acknowledge several colleagues who have allowed us to
 interface, adapt or use parts of their codes:
   Stefan Grimme, W. Hujo, H. Kruse,             : VdW corrections, initial TS optimization,
                  C. Bannwarth                     DFT functionals, gCP, sTDA/sTD-DF
   Ed Valeev, F. Pavosevic, A. Kumar             : LibInt (2-el integral package), F12 methods
   Garnet Chan, S. Sharma, J. Yang, R. Olivares  : DMRG
   Ulf Ekstrom                                   : XCFun DFT Library
   Mihaly Kallay                                 : mrcc  (arbitrary order and MRCC methods)
   Andreas Klamt, Michael Diedenhofen            : otool_cosmo (COSMO solvation model)
   Jiri Pittner, Ondrej Demel                    : Mk-CCSD
   Frank Weinhold                                : gennbo (NPA and NBO analysis)
   Christopher J. Cramer and Donald G. Truhlar   : smd solvation model
   Lars Goerigk                                  : TD-DFT with DH, B97 family of functionals
   V. Asgeirsson, H. Jonsson                     : NEB implementation
   FAccTs GmbH                                   : IRC, NEB, NEB-TS, Multilevel, MM, QM/MM, CI optimization
   S Lehtola, MJT Oliveira, MAL Marques          : LibXC Library


 Your calculation uses the libint2 library for the computation of 2-el integrals
 For citations please refer to: http://libint.valeyev.net

 Your ORCA version has been built with support for libXC version: 4.2.3
 For citations please refer to: https://tddft.org/programs/libxc/

 This ORCA versions uses:
   CBLAS   interface :  Fast vector & matrix operations
   LAPACKE interface :  Fast linear algebra routines
   SCALAPACK package :  Parallel linear algebra routines


----- Orbital basis set information -----
Your calculation utilizes the basis: 6-31G
   H-He, Li-Ne : W. J. Hehre, R. Ditchfield and J.A. Pople, J. Chem. Phys. 56, 2257 (1972).
                 Note: He and Ne are unpublished basis sets taken from the Gaussian program.
                 Note: Li and B from J. D. Dill and J. A. Pople, J. Chem. Phys. 62, 2921 (1975).
   Na - Ar     : M. M. Francl, W. J. Pietro, W. J. Hehre, J. S. Binkley, M. S. Gordon, 
                 D. J. DeFrees and J. A. Pople, J. Chem. Phys. 77, 3654 (1982).
   K - Zn      : V. A. Rassolov, J. A. Pople, M. A. Ratner, and T. L. Windus, J. Chem. Phys. 109, 1223 (1998).

================================================================================
                                        WARNINGS
                       Please study these warnings very carefully!
================================================================================


WARNING: Geometry Optimization
  ===> : Switching off AutoStart
         For restart on a previous wavefunction, please use MOREAD

INFO   : the flag for use of LIBINT has been found!

================================================================================
                                       INPUT FILE
================================================================================
NAME = project_8048/ensemble_225_150.inp
|  1> # Test redundant internal optimization
|  2> #
|  3> ! RKS B3LYP  Opt TightSCF SmallPrint
|  4> 
|  5> %basis
|  6>         Basis "6-31G"
|  7> end
|  8> 
|  9> %geom
| 10> Constraints
| 11> { D 4  0  15  12  225.0   C } # D for Dihedral angle
| 12> { D 0  15  12  16  150.0   C } # D for Dihedral angle
| 13> { D 0  4  3  2   C } # D for Dihedral angle
| 14> { D 4  3  2  1   C } # D for Dihedral angle
| 15> { D 3  2  1  0   C } # D for Dihedral angle
| 16> { D 2  1  0  4   C } # D for Dihedral angle
| 17> { D 1  0  4  3   C } # D for Dihedral angle
| 18> { D 16  20  19  18   C } # D for Dihedral angle
| 19> { D 20  19  18  17   C } # D for Dihedral angle
| 20> { D 19  18  17  16   C } # D for Dihedral angle
| 21> { D 18  17  16  20   C } # D for Dihedral angle
| 22> { D 17  16  20  19   C } # D for Dihedral angle
| 23> { D 15  12  16  20   C } # D for Dihedral angle
| 24> end
| 25> end
| 26> 
| 27> 
| 28> #%pal 
| 29> #nprocs 8
| 30> #end
| 31> 
| 32> * xyz 0 1
| 33> C  -21.048   26.222   46.251
| 34> C  -20.361   27.558   45.944
| 35> C  -20.329   28.222   47.341
| 36> C  -20.110   27.022   48.296
| 37> O  -20.473   25.807   47.535
| 38> H  -20.833   25.428   45.533
| 39> H  -19.344   27.382   45.576
| 40> H  -20.898   28.157   45.201
| 41> H  -19.543   28.978   47.434
| 42> H  -21.289   28.710   47.548
| 43> H  -20.733   27.082   49.195
| 44> H  -19.064   26.913   48.597
| 45> C  -23.415   25.773   45.218
| 46> H  -23.543   26.519   44.423
| 47> H  -22.893   24.906   44.794
| 48> O  -22.586   26.394   46.375
| 49> C  -24.823   25.300   45.675
| 50> C  -24.727   24.319   46.849
| 51> C  -24.494   25.279   48.041
| 52> C  -25.336   26.522   47.661
| 53> O  -25.595   26.427   46.207
| 54> H  -25.370   24.917   44.811
| 55> O  -26.069   23.555   47.016
| 56> H  -23.923   23.584   46.733
| 57> H  -24.797   24.847   49.000
| 58> H  -23.431   25.540   48.111
| 59> H  -24.816   27.463   47.872
| 60> H  -26.310   26.536   48.160
| 61> H  -26.889   24.272   47.135
| 62> *
| 63> 
| 64>                          ****END OF INPUT****
================================================================================

                       *****************************
                       * Geometry Optimization Run *
                       *****************************

Geometry optimization settings:
Update method            Update   .... BFGS
Choice of coordinates    CoordSys .... Z-matrix Internals
Initial Hessian          InHess   .... Almoef's Model

Convergence Tolerances:
Energy Change            TolE     ....  5.0000e-06 Eh
Max. Gradient            TolMAXG  ....  3.0000e-04 Eh/bohr
RMS Gradient             TolRMSG  ....  1.0000e-04 Eh/bohr
Max. Displacement        TolMAXD  ....  4.0000e-03 bohr
RMS Displacement         TolRMSD  ....  2.0000e-03 bohr
Strict Convergence                ....  False
------------------------------------------------------------------------------
                        ORCA OPTIMIZATION COORDINATE SETUP
------------------------------------------------------------------------------

The optimization will be done in new redundant internal coordinates
Making redundant internal coordinates   ...  (new redundants) done
Evaluating the initial hessian          ...  (Almloef) done
Evaluating the coordinates              ...  done
Calculating the B-matrix                .... done
Calculating the G-matrix                .... done
Diagonalizing the G-matrix              .... done
Imposing constraints:
 Iter   0:  RMS(Cart)=    0.0000549907 RMS(Int)=    0.0000215992
 Iter   1:  RMS(Cart)=    0.0000262706 RMS(Int)=    0.0000117179
 Iter   2:  RMS(Cart)=    0.0000130706 RMS(Int)=    0.0000069860
 Iter   3:  RMS(Cart)=    0.0000069309 RMS(Int)=    0.0000045587
 Iter   4:  RMS(Cart)=    0.0000039891 RMS(Int)=    0.0000032100
 Iter   5:  RMS(Cart)=    0.0000024877 RMS(Int)=    0.0000024160
 Iter   6:  RMS(Cart)=    0.0000016470 RMS(Int)=    0.0000019374
 Iter   7:  RMS(Cart)=    0.0000011315 RMS(Int)=    0.0000016480
 Iter   8:  RMS(Cart)=    0.0000007954 RMS(Int)=    0.0000014715
 Iter   9:  RMS(Cart)=    0.0000005702 RMS(Int)=    0.0000013602
 Iter  10:  RMS(Cart)=    0.0000004191 RMS(Int)=    0.0000012852
 Iter  11:  RMS(Cart)=    0.0000003200 RMS(Int)=    0.0000012301
 Iter  12:  RMS(Cart)=    0.0000002573 RMS(Int)=    0.0000011857
 Iter  13:  RMS(Cart)=    0.0000002194 RMS(Int)=    0.0000011474
 Iter  14:  RMS(Cart)=    0.0000001971 RMS(Int)=    0.0000011128
 Iter  15:  RMS(Cart)=    0.0000001837 RMS(Int)=    0.0000010804
 Iter  16:  RMS(Cart)=    0.0000001751 RMS(Int)=    0.0000010496
 Iter  17:  RMS(Cart)=    0.0000001689 RMS(Int)=    0.0000010201
 Iter  18:  RMS(Cart)=    0.0000001638 RMS(Int)=    0.0000009917
 Iter  19:  RMS(Cart)=    0.0000001593 RMS(Int)=    0.0000009643
 Iter  20:  RMS(Cart)=    0.0000001550 RMS(Int)=    0.0000009378
 Iter  21:  RMS(Cart)=    0.0000001508 RMS(Int)=    0.0000009120
 Iter  22:  RMS(Cart)=    0.0000001468 RMS(Int)=    0.0000008871
 Iter  23:  RMS(Cart)=    0.0000001428 RMS(Int)=    0.0000008630
 Iter  24:  RMS(Cart)=    0.0000001389 RMS(Int)=    0.0000008396
 Iter  25:  RMS(Cart)=    0.0000001351 RMS(Int)=    0.0000008169
 Iter  26:  RMS(Cart)=    0.0000001314 RMS(Int)=    0.0000007949
 Iter  27:  RMS(Cart)=    0.0000001277 RMS(Int)=    0.0000007736
 Iter  28:  RMS(Cart)=    0.0000001242 RMS(Int)=    0.0000007529
 Iter  29:  RMS(Cart)=    0.0000001208 RMS(Int)=    0.0000007329
 Iter  30:  RMS(Cart)=    0.0000001174 RMS(Int)=    0.0000007134
 Iter  31:  RMS(Cart)=    0.0000001142 RMS(Int)=    0.0000006946
 Iter  32:  RMS(Cart)=    0.0000001110 RMS(Int)=    0.0000006763
 Iter  33:  RMS(Cart)=    0.0000001079 RMS(Int)=    0.0000006585
 Iter  34:  RMS(Cart)=    0.0000001050 RMS(Int)=    0.0000006413
 Iter  35:  RMS(Cart)=    0.0000001021 RMS(Int)=    0.0000006246
 Iter  36:  RMS(Cart)=    0.0000000993 RMS(Int)=    0.0000006084
 Iter  37:  RMS(Cart)=    0.0000000966 RMS(Int)=    0.0000005927
 Iter  38:  RMS(Cart)=    0.0000000939 RMS(Int)=    0.0000005774
 Iter  39:  RMS(Cart)=    0.0000000914 RMS(Int)=    0.0000005626
 Iter  40:  RMS(Cart)=    0.0000000889 RMS(Int)=    0.0000005482
 Iter  41:  RMS(Cart)=    0.0000000865 RMS(Int)=    0.0000005343
 Iter  42:  RMS(Cart)=    0.0000000841 RMS(Int)=    0.0000005207
 Iter  43:  RMS(Cart)=    0.0000000818 RMS(Int)=    0.0000005076
 Iter  44:  RMS(Cart)=    0.0000000796 RMS(Int)=    0.0000004948
 Iter  45:  RMS(Cart)=    0.0000000775 RMS(Int)=    0.0000004824
 Iter  46:  RMS(Cart)=    0.0000000754 RMS(Int)=    0.0000004704
 Iter  47:  RMS(Cart)=    0.0000000734 RMS(Int)=    0.0000004587
 Iter  48:  RMS(Cart)=    0.0000000714 RMS(Int)=    0.0000004473
 Iter  49:  RMS(Cart)=    0.0000000695 RMS(Int)=    0.0000004363
 Iter  50:  RMS(Cart)=    0.0000000676 RMS(Int)=    0.0000004256
 Iter  51:  RMS(Cart)=    0.0000000658 RMS(Int)=    0.0000004152
 Iter  52:  RMS(Cart)=    0.0000000641 RMS(Int)=    0.0000004051
 Iter  53:  RMS(Cart)=    0.0000000624 RMS(Int)=    0.0000003953
 Iter  54:  RMS(Cart)=    0.0000000607 RMS(Int)=    0.0000003857
 Iter  55:  RMS(Cart)=    0.0000000591 RMS(Int)=    0.0000003764
 Iter  56:  RMS(Cart)=    0.0000000576 RMS(Int)=    0.0000003674
 Iter  57:  RMS(Cart)=    0.0000000561 RMS(Int)=    0.0000003587
 Iter  58:  RMS(Cart)=    0.0000000546 RMS(Int)=    0.0000003502
 Iter  59:  RMS(Cart)=    0.0000000532 RMS(Int)=    0.0000003419
 Iter  60:  RMS(Cart)=    0.0000000518 RMS(Int)=    0.0000003338
 Iter  61:  RMS(Cart)=    0.0000000504 RMS(Int)=    0.0000003260
 Iter  62:  RMS(Cart)=    0.0000000491 RMS(Int)=    0.0000003184
 Iter  63:  RMS(Cart)=    0.0000000479 RMS(Int)=    0.0000003110
 Iter  64:  RMS(Cart)=    0.0000000466 RMS(Int)=    0.0000003038
 Iter  65:  RMS(Cart)=    0.0000000454 RMS(Int)=    0.0000002969
 Iter  66:  RMS(Cart)=    0.0000000442 RMS(Int)=    0.0000002901
 Iter  67:  RMS(Cart)=    0.0000000431 RMS(Int)=    0.0000002835
 Iter  68:  RMS(Cart)=    0.0000000420 RMS(Int)=    0.0000002770
 Iter  69:  RMS(Cart)=    0.0000000409 RMS(Int)=    0.0000002708
 Iter  70:  RMS(Cart)=    0.0000000399 RMS(Int)=    0.0000002647
 Iter  71:  RMS(Cart)=    0.0000000389 RMS(Int)=    0.0000002588
 Iter  72:  RMS(Cart)=    0.0000000379 RMS(Int)=    0.0000002530
 Iter  73:  RMS(Cart)=    0.0000000369 RMS(Int)=    0.0000002474
 Iter  74:  RMS(Cart)=    0.0000000360 RMS(Int)=    0.0000002420
 Iter  75:  RMS(Cart)=    0.0000000351 RMS(Int)=    0.0000002366
 Iter  76:  RMS(Cart)=    0.0000000342 RMS(Int)=    0.0000002315
 Iter  77:  RMS(Cart)=    0.0000000333 RMS(Int)=    0.0000002265
 Iter  78:  RMS(Cart)=    0.0000000325 RMS(Int)=    0.0000002216
 Iter  79:  RMS(Cart)=    0.0000000317 RMS(Int)=    0.0000002168
 Iter  80:  RMS(Cart)=    0.0000000309 RMS(Int)=    0.0000002122
 Iter  81:  RMS(Cart)=    0.0000000301 RMS(Int)=    0.0000002077
 Iter  82:  RMS(Cart)=    0.0000000294 RMS(Int)=    0.0000002033
 Iter  83:  RMS(Cart)=    0.0000000286 RMS(Int)=    0.0000001990
 Iter  84:  RMS(Cart)=    0.0000000279 RMS(Int)=    0.0000001948
 Iter  85:  RMS(Cart)=    0.0000000272 RMS(Int)=    0.0000001907
 Iter  86:  RMS(Cart)=    0.0000000266 RMS(Int)=    0.0000001868
 Iter  87:  RMS(Cart)=    0.0000000259 RMS(Int)=    0.0000001829
 Iter  88:  RMS(Cart)=    0.0000000253 RMS(Int)=    0.0000001792
 Iter  89:  RMS(Cart)=    0.0000000247 RMS(Int)=    0.0000001755
 Iter  90:  RMS(Cart)=    0.0000000241 RMS(Int)=    0.0000001720
 Iter  91:  RMS(Cart)=    0.0000000235 RMS(Int)=    0.0000001685
 Iter  92:  RMS(Cart)=    0.0000000229 RMS(Int)=    0.0000001651
 Iter  93:  RMS(Cart)=    0.0000000223 RMS(Int)=    0.0000001618
 Iter  94:  RMS(Cart)=    0.0000000218 RMS(Int)=    0.0000001586
 Iter  95:  RMS(Cart)=    0.0000000213 RMS(Int)=    0.0000001555
 Iter  96:  RMS(Cart)=    0.0000000208 RMS(Int)=    0.0000001524
 Iter  97:  RMS(Cart)=    0.0000000203 RMS(Int)=    0.0000001494
 Iter  98:  RMS(Cart)=    0.0000000198 RMS(Int)=    0.0000001465
 Iter  99:  RMS(Cart)=    0.0000000193 RMS(Int)=    0.0000001437
 RMS(Cart) too big - taking linear step, building new B-matrix and trying again
Imposing constraints:
 Iter   0:  RMS(Cart)=    0.0000262710 RMS(Int)=    0.0000117179
 Iter   1:  RMS(Cart)=    0.0000130708 RMS(Int)=    0.0000069859
 Iter   2:  RMS(Cart)=    0.0000069310 RMS(Int)=    0.0000045586
 Iter   3:  RMS(Cart)=    0.0000039892 RMS(Int)=    0.0000032099
 Iter   4:  RMS(Cart)=    0.0000024878 RMS(Int)=    0.0000024159
 Iter   5:  RMS(Cart)=    0.0000016470 RMS(Int)=    0.0000019374
 Iter   6:  RMS(Cart)=    0.0000011315 RMS(Int)=    0.0000016479
 Iter   7:  RMS(Cart)=    0.0000007954 RMS(Int)=    0.0000014715
 Iter   8:  RMS(Cart)=    0.0000005702 RMS(Int)=    0.0000013602
 Iter   9:  RMS(Cart)=    0.0000004191 RMS(Int)=    0.0000012852
 Iter  10:  RMS(Cart)=    0.0000003200 RMS(Int)=    0.0000012300
 Iter  11:  RMS(Cart)=    0.0000002573 RMS(Int)=    0.0000011857
 Iter  12:  RMS(Cart)=    0.0000002194 RMS(Int)=    0.0000011474
 Iter  13:  RMS(Cart)=    0.0000001971 RMS(Int)=    0.0000011127
 Iter  14:  RMS(Cart)=    0.0000001837 RMS(Int)=    0.0000010803
 Iter  15:  RMS(Cart)=    0.0000001751 RMS(Int)=    0.0000010496
 Iter  16:  RMS(Cart)=    0.0000001689 RMS(Int)=    0.0000010201
 Iter  17:  RMS(Cart)=    0.0000001638 RMS(Int)=    0.0000009917
CONVERGED
Small eigenvalue found = 4.752e-03
Small eigenvalue found = 1.556e-02
Small eigenvalue found = 1.739e-02
The first mode is                       ....   91
The number of degrees of freedom        ....   81
Storing new coordinates                 .... done

    -----------------------------------------------------------------
                    Redundant Internal Coordinates


    -----------------------------------------------------------------
         Definition                    Initial Value    Approx d2E/dq
    -----------------------------------------------------------------
      1. B(C   1,C   0)                  1.5333         0.369027   
      2. B(C   2,C   1)                  1.5471         0.350825   
      3. B(C   3,C   2)                  1.5492         0.348147   
      4. B(O   4,C   0)                  1.4668         0.422031   
      5. B(O   4,C   3)                  1.4789         0.403699   
      6. B(H   5,C   0)                  1.0919         0.357632   
      7. B(H   6,C   1)                  1.0958         0.352561   
      8. B(H   7,C   1)                  1.0951         0.353431   
      9. B(H   8,C   2)                  1.0945         0.354166   
     10. B(H   9,C   2)                  1.0966         0.351438   
     11. B(H  10,C   3)                  1.0954         0.353010   
     12. B(H  11,C   3)                  1.0939         0.354989   
     13. B(H  13,C  12)                  1.0977         0.350068   
     14. B(H  14,C  12)                  1.0972         0.350641   
     15. B(O  15,C   0)                  1.5525         0.307993   
     16. B(O  15,C  12)                  1.5529         0.307583   
     17. B(C  16,C  12)                  1.5540         0.341997   
     18. B(C  17,C  16)                  1.5329         0.369585   
     19. B(C  18,C  17)                  1.5481         0.349485   
     20. B(C  19,C  18)                  1.5487         0.348797   
     21. B(O  20,C  16)                  1.4660         0.423285   
     22. B(O  20,C  19)                  1.4799         0.402145   
     23. B(H  21,C  16)                  1.0920         0.357506   
     24. B(O  22,C  17)                  1.5532         0.307213   
     25. B(H  23,C  17)                  1.0955         0.352911   
     26. B(H  24,C  18)                  1.0946         0.354087   
     27. B(H  25,C  18)                  1.0968         0.351204   
     28. B(H  26,C  19)                  1.0956         0.352731   
     29. B(H  27,C  19)                  1.0945         0.354230   
     30. B(H  28,O  22)                  1.0957         0.315791   
     31. A(O   4,C   0,H   5)          107.0188         0.328541   
     32. A(C   1,C   0,O  15)          111.3041         0.348740   
     33. A(C   1,C   0,O   4)          104.2502         0.367935   
     34. A(O   4,C   0,O  15)          110.4727         0.354548   
     35. A(C   1,C   0,H   5)          114.4392         0.323302   
     36. A(H   5,C   0,O  15)          109.1558         0.312058   
     37. A(C   0,C   1,C   2)          101.6787         0.358729   
     38. A(C   2,C   1,H   7)          112.8327         0.320016   
     39. A(C   2,C   1,H   6)          110.6706         0.319888   
     40. A(C   0,C   1,H   6)          110.0679         0.322546   
     41. A(H   6,C   1,H   7)          108.3680         0.289027   
     42. A(C   0,C   1,H   7)          113.1246         0.322677   
     43. A(C   1,C   2,H   8)          112.8315         0.320125   
     44. A(C   1,C   2,C   3)          103.1276         0.355196   
     45. A(C   1,C   2,H   9)          110.0798         0.319721   
     46. A(C   3,C   2,H   9)          110.6149         0.319321   
     47. A(C   3,C   2,H   8)          112.4036         0.319725   
     48. A(H   8,C   2,H   9)          107.7729         0.288977   
     49. A(O   4,C   3,H  10)          109.1299         0.325449   
     50. A(C   2,C   3,H  10)          112.5253         0.319554   
     51. A(C   2,C   3,O   4)          106.5273         0.361529   
     52. A(O   4,C   3,H  11)          107.1238         0.325748   
     53. A(H  10,C   3,H  11)          108.8728         0.289284   
     54. A(C   2,C   3,H  11)          112.4567         0.319846   
     55. A(C   0,O   4,C   3)          108.3134         0.371320   
     56. A(H  14,C  12,C  16)          107.7046         0.318276   
     57. A(H  13,C  12,H  14)          108.2166         0.288348   
     58. A(H  13,C  12,O  15)          109.2729         0.310914   
     59. A(H  14,C  12,O  15)          110.4832         0.310996   
     60. A(O  15,C  12,C  16)          112.7235         0.344230   
     61. A(H  13,C  12,C  16)          108.3149         0.318191   
     62. A(C   0,O  15,C  12)          115.1523         0.336200   
     63. A(C  12,C  16,C  17)          111.3002         0.357269   
     64. A(C  12,C  16,O  20)          110.4782         0.363358   
     65. A(C  17,C  16,O  20)          104.3013         0.368218   
     66. A(C  12,C  16,H  21)          109.1435         0.319285   
     67. A(C  17,C  16,H  21)          114.3859         0.323364   
     68. A(O  20,C  16,H  21)          107.0367         0.328683   
     69. A(C  16,C  17,C  18)          101.6697         0.358587   
     70. A(C  16,C  17,O  22)          110.0605         0.348680   
     71. A(C  18,C  17,O  22)          110.6257         0.345414   
     72. A(C  16,C  17,H  23)          113.2180         0.322679   
     73. A(C  18,C  17,H  23)          112.7751         0.319740   
     74. A(O  22,C  17,H  23)          108.3896         0.311260   
     75. A(C  17,C  18,C  19)          103.1175         0.355078   
     76. A(C  17,C  18,H  24)          112.8417         0.319913   
     77. A(C  19,C  18,H  24)          112.4108         0.319810   
     78. A(C  17,C  18,H  25)          110.0331         0.319487   
     79. A(C  19,C  18,H  25)          110.5850         0.319384   
     80. A(H  24,C  18,H  25)          107.8355         0.288936   
     81. A(C  18,C  19,O  20)          106.5407         0.361406   
     82. A(C  18,C  19,H  26)          112.5846         0.319610   
     83. A(O  20,C  19,H  26)          109.1111         0.325200   
     84. A(C  18,C  19,H  27)          112.4724         0.319832   
     85. A(O  20,C  19,H  27)          107.0384         0.325427   
     86. A(H  26,C  19,H  27)          108.8796         0.289151   
     87. A(C  16,O  20,C  19)          108.2839         0.371263   
     88. A(C  17,O  22,H  28)          109.6573         0.303213   
     89. D(H   7,C   1,C   0,H   5)     82.1526         0.010890   
     90. D(C   2,C   1,C   0,O  15)     79.0878         0.010890   
     91. D(H   7,C   1,C   0,O  15)    -42.1863         0.010890   
     92. D(H   6,C   1,C   0,O   4)     77.3252         0.010890   
     93. D(H   6,C   1,C   0,O  15)   -163.5724         0.010890   
     94. D(H   6,C   1,C   0,H   5)    -39.2334         0.010890   
     95. D(H   7,C   1,C   0,O   4)   -161.2888         0.010890   
     96. D(C   2,C   1,C   0,O   4)    -40.0146         0.010890 C 
     97. D(C   2,C   1,C   0,H   5)   -156.5732         0.010890   
     98. D(H   9,C   2,C   1,H   6)    160.0777         0.009912   
     99. D(H   8,C   2,C   1,C   0)    156.5477         0.009912   
    100. D(H   8,C   2,C   1,H   6)     39.6448         0.009912   
    101. D(C   3,C   2,C   1,C   0)     35.0267         0.009912 C 
    102. D(H   8,C   2,C   1,H   7)    -81.9751         0.009912   
    103. D(H   9,C   2,C   1,C   0)    -83.0194         0.009912   
    104. D(C   3,C   2,C   1,H   6)    -81.8762         0.009912   
    105. D(H   9,C   2,C   1,H   7)     38.4577         0.009912   
    106. D(C   3,C   2,C   1,H   7)    156.5039         0.009912   
    107. D(H  11,C   3,C   2,H   9)   -143.4627         0.009774   
    108. D(O   4,C   3,C   2,H   8)   -140.0068         0.009774   
    109. D(O   4,C   3,C   2,H   9)     99.4740         0.009774   
    110. D(H  10,C   3,C   2,C   1)   -137.7432         0.009774   
    111. D(H  10,C   3,C   2,H   8)    100.4467         0.009774   
    112. D(H  10,C   3,C   2,H   9)    -20.0725         0.009774   
    113. D(H  11,C   3,C   2,C   1)     98.8666         0.009774   
    114. D(O   4,C   3,C   2,C   1)    -18.1967         0.009774 C 
    115. D(H  11,C   3,C   2,H   8)    -22.9434         0.009774   
    116. D(C   3,O   4,C   0,C   1)     29.5920         0.014035 C 
    117. D(C   3,O   4,C   0,H   5)    151.2029         0.014035   
    118. D(C   3,O   4,C   0,O  15)    -90.0740         0.014035   
    119. D(C   0,O   4,C   3,C   2)     -6.8730         0.012866 C 
    120. D(C   0,O   4,C   3,H  10)    114.8548         0.012866   
    121. D(C   0,O   4,C   3,H  11)   -127.4271         0.012866   
    122. D(C   0,O  15,C  12,C  16)    150.0000         0.007775 C 
    123. D(C  12,O  15,C   0,O   4)   -135.0000         0.007793 C 
    124. D(C  12,O  15,C   0,H   5)    -17.5859         0.007793   
    125. D(C   0,O  15,C  12,H  14)     29.4432         0.007775   
    126. D(C   0,O  15,C  12,H  13)    -89.5128         0.007775   
    127. D(C  12,O  15,C   0,C   1)    109.6837         0.007793   
    128. D(C  17,C  16,C  12,H  13)   -176.3976         0.009460   
    129. D(H  21,C  16,C  12,H  14)    -60.4147         0.009460   
    130. D(C  17,C  16,C  12,O  15)    -55.3626         0.009460   
    131. D(O  20,C  16,C  12,H  13)    -61.0176         0.009460   
    132. D(O  20,C  16,C  12,H  14)   -177.8465         0.009460   
    133. D(O  20,C  16,C  12,O  15)     60.0174         0.009460 C 
    134. D(C  17,C  16,C  12,H  14)     66.7735         0.009460   
    135. D(H  21,C  16,C  12,H  13)     56.4142         0.009460   
    136. D(H  21,C  16,C  12,O  15)    177.4492         0.009460   
    137. D(C  18,C  17,C  16,C  12)     79.1246         0.010921   
    138. D(C  18,C  17,C  16,O  20)    -40.0124         0.010921 C 
    139. D(C  18,C  17,C  16,H  21)   -156.5979         0.010921   
    140. D(O  22,C  17,C  16,C  12)   -163.5948         0.010921   
    141. D(O  22,C  17,C  16,O  20)     77.2682         0.010921   
    142. D(O  22,C  17,C  16,H  21)    -39.3173         0.010921   
    143. D(H  23,C  17,C  16,C  12)    -42.1218         0.010921   
    144. D(H  23,C  17,C  16,O  20)   -161.2588         0.010921   
    145. D(H  23,C  17,C  16,H  21)     82.1557         0.010921   
    146. D(H  24,C  18,C  17,H  23)    -81.9403         0.009843   
    147. D(C  19,C  18,C  17,O  22)    -81.8940         0.009843   
    148. D(C  19,C  18,C  17,H  23)    156.5311         0.009843   
    149. D(H  24,C  18,C  17,C  16)    156.5053         0.009843   
    150. D(C  19,C  18,C  17,C  16)     34.9767         0.009843 C 
    151. D(H  24,C  18,C  17,O  22)     39.6347         0.009843   
    152. D(H  25,C  18,C  17,C  16)    -83.0080         0.009843   
    153. D(H  25,C  18,C  17,O  22)    160.1214         0.009843   
    154. D(H  25,C  18,C  17,H  23)     38.5464         0.009843   
    155. D(H  27,C  19,C  18,H  25)   -143.5636         0.009807   
    156. D(O  20,C  19,C  18,H  24)   -139.9572         0.009807   
    157. D(O  20,C  19,C  18,H  25)     99.4597         0.009807   
    158. D(H  26,C  19,C  18,C  17)   -137.7039         0.009807   
    159. D(H  26,C  19,C  18,H  24)    100.4764         0.009807   
    160. D(H  26,C  19,C  18,H  25)    -20.1067         0.009807   
    161. D(H  27,C  19,C  18,C  17)     98.8392         0.009807   
    162. D(O  20,C  19,C  18,C  17)    -18.1375         0.009807 C 
    163. D(H  27,C  19,C  18,H  24)    -22.9805         0.009807   
    164. D(C  19,O  20,C  16,C  12)    -90.0681         0.014118   
    165. D(C  19,O  20,C  16,C  17)     29.6253         0.014118 C 
    166. D(C  19,O  20,C  16,H  21)    151.2099         0.014118   
    167. D(C  16,O  20,C  19,C  18)     -6.9132         0.012770 C 
    168. D(C  16,O  20,C  19,H  26)    114.8830         0.012770   
    169. D(C  16,O  20,C  19,H  27)   -127.4478         0.012770   
    170. D(H  28,O  22,C  17,C  16)    -55.7514         0.007759   
    171. D(H  28,O  22,C  17,C  18)     55.8117         0.007759   
    172. D(H  28,O  22,C  17,H  23)    179.9379         0.007759   
    -----------------------------------------------------------------

Number of atoms                         .... 29
Number of degrees of freedom            .... 172

Time needed for optimization step       :     5.30 sec

         *************************************************************
         *                GEOMETRY OPTIMIZATION CYCLE   1            *
         *************************************************************
---------------------------------
CARTESIAN COORDINATES (ANGSTROEM)
---------------------------------
  C    -21.048058   26.222019   46.251008
  C    -20.360953   27.557958   45.943997
  C    -20.328958   28.221984   47.340985
  C    -20.110081   27.021989   48.296023
  O    -20.473141   25.806995   47.535037
  H    -20.833090   25.427977   45.533044
  H    -19.343951   27.381877   45.576040
  H    -20.897881   28.156979   45.200961
  H    -19.542907   28.977929   47.433998
  H    -21.288931   28.710057   47.547937
  H    -20.733112   27.082056   49.194997
  H    -19.064101   26.912920   48.597067
  C    -23.415050   25.773084   45.217961
  H    -23.543040   26.519071   44.422948
  H    -22.893061   24.906069   44.793977
  O    -22.586052   26.394115   46.374946
  C    -24.823015   25.300011   45.674994
  C    -24.726931   24.319017   46.848994
  C    -24.493948   25.279027   48.040989
  C    -25.336024   26.521981   47.661014
  O    -25.595059   26.426968   46.207022
  H    -25.370017   24.916978   44.811010
  O    -26.068886   23.554946   47.016030
  H    -23.922895   23.584060   46.732971
  H    -24.796898   24.847010   48.999997
  H    -23.430960   25.540083   48.110960
  H    -24.816069   27.463009   47.872000
  H    -26.310011   26.535928   48.160041
  H    -26.888921   24.271903   47.135053

----------------------------
CARTESIAN COORDINATES (A.U.)
----------------------------
  NO LB      ZA    FRAG     MASS         X           Y           Z
   0 C     6.0000    0    12.011  -39.775065   49.552434   87.401738
   1 C     6.0000    0    12.011  -38.476624   52.076994   86.821572
   2 C     6.0000    0    12.011  -38.416163   53.331820   89.461496
   3 C     6.0000    0    12.011  -38.002546   51.064159   91.266257
   4 O     8.0000    0    15.999  -38.688630   48.768153   89.828202
   5 H     1.0000    0     1.008  -39.368834   48.051914   86.044983
   6 H     1.0000    0     1.008  -36.554770   51.744249   86.126234
   7 H     1.0000    0     1.008  -39.491271   53.208979   85.417438
   8 H     1.0000    0     1.008  -36.930742   54.760349   89.637265
   9 H     1.0000    0     1.008  -40.230249   54.254145   89.852580
  10 H     1.0000    0     1.008  -39.179904   51.177669   92.965072
  11 H     1.0000    0     1.008  -36.025930   50.858048   91.835147
  12 C     6.0000    0    12.011  -44.248032   48.704070   85.449563
  13 H     1.0000    0     1.008  -44.489898   50.113781   83.947205
  14 H     1.0000    0     1.008  -43.261615   47.065650   84.648350
  15 O     8.0000    0    15.999  -42.681453   49.877650   87.635947
  16 C     6.0000    0    12.011  -46.908700   47.810093   86.313229
  17 C     6.0000    0    12.011  -46.727127   45.956282   88.531768
  18 C     6.0000    0    12.011  -46.286853   47.770438   90.784313
  19 C     6.0000    0    12.011  -47.878147   50.119281   90.066263
  20 O     8.0000    0    15.999  -48.367653   49.939732   87.318617
  21 H     1.0000    0     1.008  -47.942385   47.086265   84.680536
  22 O     8.0000    0    15.999  -49.263055   44.512397   88.847420
  23 H     1.0000    0     1.008  -45.207719   44.567415   88.312517
  24 H     1.0000    0     1.008  -46.859346   46.954044   92.596575
  25 H     1.0000    0     1.008  -44.278097   48.263762   90.916539
  26 H     1.0000    0     1.008  -46.895575   51.897566   90.464969
  27 H     1.0000    0     1.008  -49.718716   50.145637   91.009288
  28 H     1.0000    0     1.008  -50.812696   45.867249   89.072341

--------------------------------
INTERNAL COORDINATES (ANGSTROEM)
--------------------------------
 C      0   0   0     0.000000000000     0.00000000     0.00000000
 C      1   0   0     1.533334275362     0.00000000     0.00000000
 C      2   1   0     1.547103422529   101.67907390     0.00000000
 C      3   2   1     1.549188819996   103.12737509    35.02687180
 O      1   2   3     1.466801281701   104.24948604   319.98542309
 H      1   2   3     1.091872245274   114.43876658   203.42640133
 H      2   1   3     1.095759553917   110.06782188   117.34000099
 H      2   1   3     1.095088580892   113.12442239   238.72597460
 H      3   2   1     1.094523183857   112.83161078   156.54780790
 H      3   2   1     1.096628013503   110.07982737   276.98070077
 H      4   3   2     1.095413164062   112.52534669   222.25678475
 H      4   3   2     1.093891219455   112.45670684    98.86663270
 C      1   2   3     2.621331531875   118.35380517   114.09934485
 H     13   1   2     1.097690757910   105.91995220    15.58262543
 H     13   1   2     1.097246098193    81.83897975   122.29085849
 O      1   2   3     1.552547583812   111.30349807    79.08752829
 C     13   1   2     1.554040540012   138.97010628   229.94617289
 C     17  13   1     1.532923024812   111.30043911   328.73129045
 C     18  17  13     1.548145019047   101.66952281    79.12472564
 C     19  18  17     1.548681051734   103.11763480    34.97664676
 O     17  13   1     1.465993519767   110.47803483    84.11181337
 H     17  13   1     1.091967948248   109.14325805   201.54292438
 O     18  17  13     1.553238230279   110.06049478   196.40529329
 H     18  17  13     1.095489388356   113.21811584   317.87827361
 H     19  18  17     1.094583939221   112.84163131   156.50531969
 H     19  18  17     1.096809007986   110.03311665   276.99197903
 H     20  19  18     1.095628586703   112.58459056   222.29614517
 H     20  19  18     1.094473846193   112.47238100    98.83925039
 H     23  18  17     1.095741757897   109.65732539   304.24869611

---------------------------
INTERNAL COORDINATES (A.U.)
---------------------------
 C      0   0   0     0.000000000000     0.00000000     0.00000000
 C      1   0   0     2.897581852189     0.00000000     0.00000000
 C      2   1   0     2.923601769431   101.67907390     0.00000000
 C      3   2   1     2.927542599525   103.12737509    35.02687180
 O      1   2   3     2.771852715300   104.24948604   319.98542309
 H      1   2   3     2.063339516798   114.43876658   203.42640133
 H      2   1   3     2.070685465531   110.06782188   117.34000099
 H      2   1   3     2.069417510270   113.12442239   238.72597460
 H      3   2   1     2.068349064717   112.83161078   156.54780790
 H      3   2   1     2.072326616307   110.07982737   276.98070077
 H      4   3   2     2.070030883569   112.52534669   222.25678475
 H      4   3   2     2.067154825070   112.45670684    98.86663270
 C      1   2   3     4.953598701455   118.35380517   114.09934485
 H     13   1   2     2.074334912185   105.91995220    15.58262543
 H     13   1   2     2.073494627099    81.83897975   122.29085849
 O      1   2   3     2.933889743286   111.30349807    79.08752829
 C     13   1   2     2.936711021633   138.97010628   229.94617289
 C     17  13   1     2.896804701278   111.30043911   328.73129045
 C     18  17  13     2.925570101593   101.66952281    79.12472564
 C     19  18  17     2.926583056570   103.11763480    34.97664676
 O     17  13   1     2.770326266464   110.47803483    84.11181337
 H     17  13   1     2.063520369208   109.14325805   201.54292438
 O     18  17  13     2.935194875964   110.06049478   196.40529329
 H     18  17  13     2.070174926609   113.21811584   317.87827361
 H     19  18  17     2.068463875716   112.84163131   156.50531969
 H     19  18  17     2.072668646312   110.03311665   276.99197903
 H     20  19  18     2.070437973363   112.58459056   222.29614517
 H     20  19  18     2.068255830044   112.47238100    98.83925039
 H     23  18  17     2.070651835927   109.65732539   304.24869611

---------------------
BASIS SET INFORMATION
---------------------
There are 3 groups of distinct atoms

 Group   1 Type C   : 10s4p contracted to 3s2p pattern {631/31}
 Group   2 Type O   : 10s4p contracted to 3s2p pattern {631/31}
 Group   3 Type H   : 4s contracted to 2s pattern {31}

Atom   0C    basis set group =>   1
Atom   1C    basis set group =>   1
Atom   2C    basis set group =>   1
Atom   3C    basis set group =>   1
Atom   4O    basis set group =>   2
Atom   5H    basis set group =>   3
Atom   6H    basis set group =>   3
Atom   7H    basis set group =>   3
Atom   8H    basis set group =>   3
Atom   9H    basis set group =>   3
Atom  10H    basis set group =>   3
Atom  11H    basis set group =>   3
Atom  12C    basis set group =>   1
Atom  13H    basis set group =>   3
Atom  14H    basis set group =>   3
Atom  15O    basis set group =>   2
Atom  16C    basis set group =>   1
Atom  17C    basis set group =>   1
Atom  18C    basis set group =>   1
Atom  19C    basis set group =>   1
Atom  20O    basis set group =>   2
Atom  21H    basis set group =>   3
Atom  22O    basis set group =>   2
Atom  23H    basis set group =>   3
Atom  24H    basis set group =>   3
Atom  25H    basis set group =>   3
Atom  26H    basis set group =>   3
Atom  27H    basis set group =>   3
Atom  28H    basis set group =>   3
------------------------------------------------------------------------------
                           ORCA GTO INTEGRAL CALCULATION
------------------------------------------------------------------------------

                         BASIS SET STATISTICS AND STARTUP INFO

 # of primitive gaussian shells          ...  246
 # of primitive gaussian functions       ...  350
 # of contracted shells                  ...   97
 # of contracted basis functions         ...  149
 Highest angular momentum                ...    1
 Maximum contraction depth               ...    6
 Integral package used                   ... LIBINT
 Integral threshhold            Thresh   ...  2.500e-11
 Primitive cut-off              TCut     ...  2.500e-12


------------------------------ INTEGRAL EVALUATION ----------------------------


 * One electron integrals 
 Pre-screening matrix                    ... done
 Shell pair data                         ... done (   0.002 sec)

-------------------------------------------------------------------------------
                                 ORCA SCF
-------------------------------------------------------------------------------

------------
SCF SETTINGS
------------
Hamiltonian:
 Density Functional     Method          .... DFT(GTOs)
 Exchange Functional    Exchange        .... B88
   X-Alpha parameter    XAlpha          ....  0.666667
   Becke's b parameter  XBeta           ....  0.004200
 Correlation Functional Correlation     .... LYP
 LDA part of GGA corr.  LDAOpt          .... VWN-5
 Gradients option       PostSCFGGA      .... off
 Hybrid DFT is turned on
   Fraction HF Exchange ScalHFX         ....  0.200000
   Scaling of DF-GGA-X  ScalDFX         ....  0.720000
   Scaling of DF-GGA-C  ScalDFC         ....  0.810000
   Scaling of DF-LDA-C  ScalLDAC        ....  1.000000
   Perturbative correction              ....  0.000000
   Density functional embedding theory  .... OFF
   NL short-range parameter             ....  4.800000


General Settings:
 Integral files         IntName         .... project_8048/ensemble_225_150
 Hartree-Fock type      HFTyp           .... RHF
 Total Charge           Charge          ....    0
 Multiplicity           Mult            ....    1
 Number of Electrons    NEL             ....  102
 Basis Dimension        Dim             ....  149
 Nuclear Repulsion      ENuc            ....    875.4546405700 Eh

Convergence Acceleration:
 DIIS                   CNVDIIS         .... on
   Start iteration      DIISMaxIt       ....    12
   Startup error        DIISStart       ....  0.200000
   # of expansion vecs  DIISMaxEq       ....     5
   Bias factor          DIISBfac        ....   1.050
   Max. coefficient     DIISMaxC        ....  10.000
 Newton-Raphson         CNVNR           .... off
 SOSCF                  CNVSOSCF        .... on
   Start iteration      SOSCFMaxIt      ....   150
   Startup grad/error   SOSCFStart      ....  0.003300
 Level Shifting         CNVShift        .... on
   Level shift para.    LevelShift      ....    0.2500
   Turn off err/grad.   ShiftErr        ....    0.0010
 Zerner damping         CNVZerner       .... off
 Static damping         CNVDamp         .... on
   Fraction old density DampFac         ....    0.7000
   Max. Damping (<1)    DampMax         ....    0.9800
   Min. Damping (>=0)   DampMin         ....    0.0000
   Turn off err/grad.   DampErr         ....    0.1000
 Fernandez-Rico         CNVRico         .... off

SCF Procedure:
 Maximum # iterations   MaxIter         ....   125
 SCF integral mode      SCFMode         .... Direct
   Integral package                     .... LIBINT
 Reset frequency        DirectResetFreq ....    20
 Integral Threshold     Thresh          ....  2.500e-11 Eh
 Primitive CutOff       TCut            ....  2.500e-12 Eh

Convergence Tolerance:
 Convergence Check Mode ConvCheckMode   .... Total+1el-Energy
 Convergence forced     ConvForced      .... 0
 Energy Change          TolE            ....  1.000e-08 Eh
 1-El. energy change                    ....  1.000e-05 Eh
 Orbital Gradient       TolG            ....  1.000e-05
 Orbital Rotation angle TolX            ....  1.000e-05
 DIIS Error             TolErr          ....  5.000e-07


Diagonalization of the overlap matrix:
Smallest eigenvalue                        ... 4.331e-03
Time for diagonalization                   ...    0.008 sec
Threshold for overlap eigenvalues          ... 1.000e-08
Number of eigenvalues below threshold      ... 0
Time for construction of square roots      ...    1.786 sec
Total time needed                          ...    1.794 sec

-------------------
DFT GRID GENERATION
-------------------

General Integration Accuracy     IntAcc      ...  4.340
Radial Grid Type                 RadialGrid  ... Gauss-Chebyshev
Angular Grid (max. acc.)         AngularGrid ... Lebedev-110
Angular grid pruning method      GridPruning ... 3 (G Style)
Weight generation scheme         WeightScheme... Becke
Basis function cutoff            BFCut       ...    1.0000e-11
Integration weight cutoff        WCut        ...    1.0000e-14
Grids for H and He will be reduced by one unit

# of grid points (after initial pruning)     ...  34472 (   0.0 sec)
# of grid points (after weights+screening)   ...  30948 (   0.3 sec)
nearest neighbour list constructed           ...    0.0 sec
Grid point re-assignment to atoms done       ...    0.0 sec
Grid point division into batches done        ...    0.0 sec
Reduced shell lists constructed in    0.4 sec

Total number of grid points                  ...    30948
Total number of batches                      ...      497
Average number of points per batch           ...       62
Average number of grid points per atom       ...     1067
Average number of shells per batch           ...    60.02 (61.88%)
Average number of basis functions per batch  ...    97.37 (65.35%)
Average number of large shells per batch     ...    42.12 (70.17%)
Average number of large basis fcns per batch ...    69.88 (71.77%)
Maximum spatial batch extension              ...  19.44, 20.09, 19.86 au
Average spatial batch extension              ...   3.13,  3.39,  3.39 au

Time for grid setup =    7.369 sec

------------------------------
INITIAL GUESS: MODEL POTENTIAL
------------------------------
Loading Hartree-Fock densities                     ... done
Calculating cut-offs                               ... done
Setting up the integral package                    ... done
Initializing the effective Hamiltonian             ... done
Starting the Coulomb interaction                   ... done (   0.4 sec)
Reading the grid                                   ... done
Mapping shells                                     ... done
Starting the XC term evaluation                    ... done (   0.4 sec)
  promolecular density results
     # of electrons  =    101.996253370
     EX              =    -83.663263631
     EC              =     -3.457977185
     EX+EC           =    -87.121240817
Transforming the Hamiltonian                       ... done (   1.3 sec)
Diagonalizing the Hamiltonian                      ... done (   0.0 sec)
Back transforming the eigenvectors                 ... done (   0.0 sec)
Now organizing SCF variables                       ... done
                      ------------------
                      INITIAL GUESS DONE (  14.9 sec)
                      ------------------
--------------
SCF ITERATIONS
--------------
ITER       Energy         Delta-E        Max-DP      RMS-DP      [F,P]     Damp
               ***  Starting incremental Fock matrix formation  ***
  0   -652.5350238804   0.000000000000 0.07671298  0.00304442  0.2331582 0.7000
  1   -652.6769282348  -0.141904354336 0.04383382  0.00208158  0.0925708 0.7000
                               ***Turning on DIIS***
  2   -652.7298694992  -0.052941264484 0.05782902  0.00330917  0.0297801 0.0000
  3   -652.8171895253  -0.087320026107 0.03087812  0.00140334  0.0535987 0.0000
  4   -652.8349622298  -0.017772704443 0.00928962  0.00042536  0.0092282 0.0000
  5   -652.8359376195  -0.000975389707 0.00297507  0.00012948  0.0045106 0.0000
                      *** Initiating the SOSCF procedure ***
                           *** Shutting down DIIS ***
                      *** Re-Reading the Fockian *** 
                      *** Removing any level shift *** 
ITER      Energy       Delta-E        Grad      Rot      Max-DP    RMS-DP
  6   -652.83601285  -0.0000752259  0.000204  0.000204  0.001076  0.000056
               *** Restarting incremental Fock matrix formation ***
  7   -652.83601559  -0.0000027418  0.000158  0.000215  0.000987  0.000034
  8   -652.83601338   0.0000022107  0.000268  0.000162  0.000598  0.000021
  9   -652.83601691  -0.0000035315  0.000029  0.000047  0.000231  0.000007
 10   -652.83601683   0.0000000735  0.000047  0.000029  0.000145  0.000004
 11   -652.83601698  -0.0000001419  0.000004  0.000007  0.000029  0.000001
 12   -652.83601698   0.0000000013  0.000007  0.000005  0.000019  0.000001
                  ***Gradient check signals convergence***
              ***Rediagonalizing the Fockian in SOSCF/NRSCF***

               *****************************************************
               *                     SUCCESS                       *
               *           SCF CONVERGED AFTER  13 CYCLES          *
               *****************************************************

Setting up the final grid:

General Integration Accuracy     IntAcc      ...  4.670
Radial Grid Type                 RadialGrid  ... Gauss-Chebyshev
Angular Grid (max. acc.)         AngularGrid ... Lebedev-302
Angular grid pruning method      GridPruning ... 3 (G Style)
Weight generation scheme         WeightScheme... Becke
Basis function cutoff            BFCut       ...    1.0000e-11
Integration weight cutoff        WCut        ...    1.0000e-14
Grids for H and He will be reduced by one unit

# of grid points (after initial pruning)     ... 135060 (   0.1 sec)
# of grid points (after weights+screening)   ... 118797 (   1.0 sec)
nearest neighbour list constructed           ...    0.0 sec
Grid point re-assignment to atoms done       ...    0.0 sec
Grid point division into batches done        ...    0.5 sec
Reduced shell lists constructed in    1.5 sec

Total number of grid points                  ...   118797
Total number of batches                      ...     1870
Average number of points per batch           ...       63
Average number of grid points per atom       ...     4096
Average number of shells per batch           ...    54.68 (56.38%)
Average number of basis functions per batch  ...    88.96 (59.70%)
Average number of large shells per batch     ...    37.49 (68.56%)
Average number of large basis fcns per batch ...    62.36 (70.10%)
Maximum spatial batch extension              ...  18.30, 19.89, 19.99 au
Average spatial batch extension              ...   2.14,  2.24,  2.23 au

Final grid set up in    6.1 sec
Final integration                            ... done (   7.2 sec)
Change in XC energy                          ...    -0.000145836
Integrated number of electrons               ...   101.999712516
Previous integrated no of electrons          ...   102.000808611

----------------
TOTAL SCF ENERGY
----------------

Total Energy       :         -652.83616281 Eh          -17764.57512 eV

Components:
Nuclear Repulsion  :          875.45464057 Eh           23822.33187 eV
Electronic Energy  :        -1528.29080338 Eh          -41586.90700 eV
One Electron Energy:        -2628.95612643 Eh          -71537.53310 eV
Two Electron Energy:         1100.66532304 Eh           29950.62610 eV

Virial components:
Potential Energy   :        -1301.76428908 Eh          -35422.80717 eV
Kinetic Energy     :          648.92812626 Eh           17658.23204 eV
Virial Ratio       :            2.00602229


DFT components:
N(Alpha)           :       50.999856257932 electrons
N(Beta)            :       50.999856257932 electrons
N(Total)           :      101.999712515864 electrons
E(X)               :      -67.590079638948 Eh       
E(C)               :       -4.069981829363 Eh       
E(XC)              :      -71.660061468311 Eh       
DFET-embed. en.    :        0.000000000000 Eh       

---------------
SCF CONVERGENCE
---------------

  Last Energy change         ...   -2.5869e-09  Tolerance :   1.0000e-08
  Last MAX-Density change    ...    3.2196e-06  Tolerance :   1.0000e-07
  Last RMS-Density change    ...    1.0410e-07  Tolerance :   5.0000e-09
  Last Orbital Gradient      ...    4.3129e-07  Tolerance :   1.0000e-05
  Last Orbital Rotation      ...    5.8432e-07  Tolerance :   1.0000e-05

             **** THE GBW FILE WAS UPDATED (project_8048/ensemble_225_150.gbw) ****
             **** DENSITY FILE WAS UPDATED (project_8048/ensemble_225_150.scfp) ****
             **** ENERGY FILE WAS UPDATED (project_8048/ensemble_225_150.en.tmp) ****
             **** THE GBW FILE WAS UPDATED (project_8048/ensemble_225_150.gbw) ****
             **** DENSITY FILE WAS UPDATED (project_8048/ensemble_225_150.scfp) ****
----------------
ORBITAL ENERGIES
----------------

  NO   OCC          E(Eh)            E(eV) 
   0   2.0000     -19.156493      -521.2747 
   1   2.0000     -19.151445      -521.1373 
   2   2.0000     -19.134312      -520.6711 
   3   2.0000     -19.133559      -520.6506 
   4   2.0000     -10.292446      -280.0717 
   5   2.0000     -10.239953      -278.6433 
   6   2.0000     -10.237675      -278.5813 
   7   2.0000     -10.235589      -278.5245 
   8   2.0000     -10.232300      -278.4350 
   9   2.0000     -10.217039      -278.0198 
  10   2.0000     -10.195925      -277.4452 
  11   2.0000     -10.192838      -277.3612 
  12   2.0000     -10.167107      -276.6611 
  13   2.0000      -1.041378       -28.3373 
  14   2.0000      -1.020445       -27.7677 
  15   2.0000      -0.970680       -26.4136 
  16   2.0000      -0.953585       -25.9484 
  17   2.0000      -0.793366       -21.5886 
  18   2.0000      -0.773156       -21.0386 
  19   2.0000      -0.755917       -20.5696 
  20   2.0000      -0.735871       -20.0241 
  21   2.0000      -0.668748       -18.1975 
  22   2.0000      -0.604135       -16.4394 
  23   2.0000      -0.597164       -16.2496 
  24   2.0000      -0.584091       -15.8939 
  25   2.0000      -0.572382       -15.5753 
  26   2.0000      -0.515273       -14.0213 
  27   2.0000      -0.500517       -13.6198 
  28   2.0000      -0.491896       -13.3852 
  29   2.0000      -0.482577       -13.1316 
  30   2.0000      -0.466414       -12.6918 
  31   2.0000      -0.446452       -12.1486 
  32   2.0000      -0.442581       -12.0432 
  33   2.0000      -0.431182       -11.7331 
  34   2.0000      -0.413202       -11.2438 
  35   2.0000      -0.409475       -11.1424 
  36   2.0000      -0.403017       -10.9666 
  37   2.0000      -0.375375       -10.2145 
  38   2.0000      -0.372014       -10.1230 
  39   2.0000      -0.367187        -9.9917 
  40   2.0000      -0.363082        -9.8800 
  41   2.0000      -0.353878        -9.6295 
  42   2.0000      -0.353830        -9.6282 
  43   2.0000      -0.324615        -8.8332 
  44   2.0000      -0.319179        -8.6853 
  45   2.0000      -0.307809        -8.3759 
  46   2.0000      -0.297874        -8.1056 
  47   2.0000      -0.269896        -7.3442 
  48   2.0000      -0.256395        -6.9769 
  49   2.0000      -0.255815        -6.9611 
  50   2.0000      -0.237091        -6.4516 
  51   0.0000       0.045156         1.2288 
  52   0.0000       0.053969         1.4686 
  53   0.0000       0.086087         2.3425 
  54   0.0000       0.095941         2.6107 
  55   0.0000       0.104104         2.8328 
  56   0.0000       0.106907         2.9091 
  57   0.0000       0.109600         2.9824 
  58   0.0000       0.125274         3.4089 
  59   0.0000       0.127499         3.4694 
  60   0.0000       0.139244         3.7890 
  61   0.0000       0.142640         3.8814 
  62   0.0000       0.150617         4.0985 
  63   0.0000       0.152027         4.1369 
  64   0.0000       0.156452         4.2573 
  65   0.0000       0.164230         4.4689 
  66   0.0000       0.172673         4.6987 
  67   0.0000       0.173816         4.7298 
  68   0.0000       0.183894         5.0040 
  69   0.0000       0.192923         5.2497 
  70   0.0000       0.194033         5.2799 
  71   0.0000       0.214146         5.8272 
  72   0.0000       0.218053         5.9335 
  73   0.0000       0.231873         6.3096 
  74   0.0000       0.244209         6.6453 
  75   0.0000       0.247996         6.7483 
  76   0.0000       0.251665         6.8482 
  77   0.0000       0.264625         7.2008 
  78   0.0000       0.285872         7.7790 
  79   0.0000       0.295876         8.0512 
  80   0.0000       0.311521         8.4769 
  81   0.0000       0.519806        14.1446 
  82   0.0000       0.527521        14.3546 
  83   0.0000       0.545343        14.8395 
  84   0.0000       0.547896        14.9090 
  85   0.0000       0.556009        15.1298 
  86   0.0000       0.566038        15.4027 
  87   0.0000       0.578889        15.7524 
  88   0.0000       0.581432        15.8216 
  89   0.0000       0.592693        16.1280 
  90   0.0000       0.600550        16.3418 
  91   0.0000       0.605749        16.4833 
  92   0.0000       0.619592        16.8600 
  93   0.0000       0.636016        17.3069 
  94   0.0000       0.637849        17.3568 
  95   0.0000       0.653507        17.7828 
  96   0.0000       0.655280        17.8311 
  97   0.0000       0.663614        18.0579 
  98   0.0000       0.687220        18.7002 
  99   0.0000       0.700886        19.0721 
 100   0.0000       0.743715        20.2375 
 101   0.0000       0.751613        20.4524 
 102   0.0000       0.775879        21.1127 
 103   0.0000       0.803454        21.8631 
 104   0.0000       0.811443        22.0805 
 105   0.0000       0.825765        22.4702 
 106   0.0000       0.838306        22.8115 
 107   0.0000       0.845429        23.0053 
 108   0.0000       0.856947        23.3187 
 109   0.0000       0.867493        23.6057 
 110   0.0000       0.876888        23.8613 
 111   0.0000       0.882033        24.0013 
 112   0.0000       0.895179        24.3591 
 113   0.0000       0.904703        24.6182 
 114   0.0000       0.924921        25.1684 
 115   0.0000       0.929180        25.2843 
 116   0.0000       0.930667        25.3247 
 117   0.0000       0.940977        25.6053 
 118   0.0000       0.950086        25.8532 
 119   0.0000       0.962709        26.1966 
 120   0.0000       0.964678        26.2502 
 121   0.0000       0.980548        26.6821 
 122   0.0000       0.992276        27.0012 
 123   0.0000       1.024081        27.8667 
 124   0.0000       1.035159        28.1681 
 125   0.0000       1.065018        28.9806 
 126   0.0000       1.091703        29.7067 
 127   0.0000       1.115097        30.3433 
 128   0.0000       1.117295        30.4031 
 129   0.0000       1.155365        31.4391 
 130   0.0000       1.174885        31.9702 
 131   0.0000       1.241321        33.7781 
 132   0.0000       1.275194        34.6998 
 133   0.0000       1.296618        35.2828 
 134   0.0000       1.340608        36.4798 
 135   0.0000       1.358549        36.9680 
 136   0.0000       1.375979        37.4423 
 137   0.0000       1.412012        38.4228 
 138   0.0000       1.425129        38.7797 
 139   0.0000       1.457632        39.6642 
 140   0.0000       1.483240        40.3610 
 141   0.0000       1.553471        42.2721 
 142   0.0000       1.640948        44.6525 
 143   0.0000       1.716244        46.7014 
 144   0.0000       1.748621        47.5824 
 145   0.0000       1.850185        50.3461 
 146   0.0000       1.935189        52.6592 
 147   0.0000       2.058661        56.0190 
 148   0.0000       2.119511        57.6748 

                    ********************************
                    * MULLIKEN POPULATION ANALYSIS *
                    ********************************

-----------------------
MULLIKEN ATOMIC CHARGES
-----------------------
   0 C :    0.288140
   1 C :   -0.264872
   2 C :   -0.302350
   3 C :   -0.004830
   4 O :   -0.504191
   5 H :    0.148514
   6 H :    0.149639
   7 H :    0.156881
   8 H :    0.145075
   9 H :    0.165104
  10 H :    0.151771
  11 H :    0.145214
  12 C :   -0.018114
  13 H :    0.154909
  14 H :    0.126715
  15 O :   -0.518419
  16 C :    0.063804
  17 C :    0.071934
  18 C :   -0.294780
  19 C :   -0.016569
  20 O :   -0.523172
  21 H :    0.162722
  22 O :   -0.602822
  23 H :    0.154036
  24 H :    0.139979
  25 H :    0.200504
  26 H :    0.146709
  27 H :    0.131057
  28 H :    0.347414
Sum of atomic charges:   -0.0000000

--------------------------------
MULLIKEN REDUCED ORBITAL CHARGES
--------------------------------
  0 C s       :     3.228786  s :     3.228786
      pz      :     0.794280  p :     2.483074
      px      :     0.687515
      py      :     1.001279
  1 C s       :     3.304717  s :     3.304717
      pz      :     0.987816  p :     2.960154
      px      :     1.029553
      py      :     0.942785
  2 C s       :     3.317255  s :     3.317255
      pz      :     0.905077  p :     2.985095
      px      :     1.089927
      py      :     0.990091
  3 C s       :     3.262255  s :     3.262255
      pz      :     0.940100  p :     2.742575
      px      :     1.060363
      py      :     0.742113
  4 O s       :     3.947726  s :     3.947726
      pz      :     1.319079  p :     4.556465
      px      :     1.717510
      py      :     1.519877
  5 H s       :     0.851486  s :     0.851486
  6 H s       :     0.850361  s :     0.850361
  7 H s       :     0.843119  s :     0.843119
  8 H s       :     0.854925  s :     0.854925
  9 H s       :     0.834896  s :     0.834896
 10 H s       :     0.848229  s :     0.848229
 11 H s       :     0.854786  s :     0.854786
 12 C s       :     3.279514  s :     3.279514
      pz      :     0.843379  p :     2.738600
      px      :     0.892371
      py      :     1.002850
 13 H s       :     0.845091  s :     0.845091
 14 H s       :     0.873285  s :     0.873285
 15 O s       :     3.946300  s :     3.946300
      pz      :     1.538647  p :     4.572119
      px      :     1.246439
      py      :     1.787033
 16 C s       :     3.272312  s :     3.272312
      pz      :     0.971983  p :     2.663884
      px      :     0.885661
      py      :     0.806239
 17 C s       :     3.302785  s :     3.302785
      pz      :     0.920537  p :     2.625282
      px      :     0.794608
      py      :     0.910136
 18 C s       :     3.310355  s :     3.310355
      pz      :     0.981029  p :     2.984425
      px      :     1.085187
      py      :     0.918209
 19 C s       :     3.265875  s :     3.265875
      pz      :     0.675362  p :     2.750694
      px      :     1.034593
      py      :     1.040740
 20 O s       :     3.943550  s :     3.943550
      pz      :     1.294883  p :     4.579622
      px      :     1.720554
      py      :     1.564185
 21 H s       :     0.837278  s :     0.837278
 22 O s       :     3.949850  s :     3.949850
      pz      :     1.925463  p :     4.652972
      px      :     1.200477
      py      :     1.527032
 23 H s       :     0.845964  s :     0.845964
 24 H s       :     0.860021  s :     0.860021
 25 H s       :     0.799496  s :     0.799496
 26 H s       :     0.853291  s :     0.853291
 27 H s       :     0.868943  s :     0.868943
 28 H s       :     0.652586  s :     0.652586


                     *******************************
                     * LOEWDIN POPULATION ANALYSIS *
                     *******************************

----------------------
LOEWDIN ATOMIC CHARGES
----------------------
   0 C :    0.186592
   1 C :   -0.222040
   2 C :   -0.217141
   3 C :   -0.029305
   4 O :   -0.308229
   5 H :    0.103982
   6 H :    0.116510
   7 H :    0.123710
   8 H :    0.115648
   9 H :    0.120084
  10 H :    0.107203
  11 H :    0.103661
  12 C :   -0.042120
  13 H :    0.110167
  14 H :    0.098449
  15 O :   -0.360856
  16 C :    0.020204
  17 C :    0.045738
  18 C :   -0.245233
  19 C :   -0.032441
  20 O :   -0.330699
  21 H :    0.123863
  22 O :   -0.448475
  23 H :    0.120840
  24 H :    0.114421
  25 H :    0.141931
  26 H :    0.106056
  27 H :    0.093072
  28 H :    0.284411

-------------------------------
LOEWDIN REDUCED ORBITAL CHARGES
-------------------------------
  0 C s       :     2.980603  s :     2.980603
      pz      :     0.917321  p :     2.832805
      px      :     0.829431
      py      :     1.086053
  1 C s       :     2.979145  s :     2.979145
      pz      :     1.078010  p :     3.242895
      px      :     1.107518
      py      :     1.057367
  2 C s       :     2.973201  s :     2.973201
      pz      :     1.030085  p :     3.243940
      px      :     1.134412
      py      :     1.079443
  3 C s       :     2.984189  s :     2.984189
      pz      :     1.038689  p :     3.045116
      px      :     1.120828
      py      :     0.885599
  4 O s       :     3.608528  s :     3.608528
      pz      :     1.381950  p :     4.699701
      px      :     1.751428
      py      :     1.566322
  5 H s       :     0.896018  s :     0.896018
  6 H s       :     0.883490  s :     0.883490
  7 H s       :     0.876290  s :     0.876290
  8 H s       :     0.884352  s :     0.884352
  9 H s       :     0.879916  s :     0.879916
 10 H s       :     0.892797  s :     0.892797
 11 H s       :     0.896339  s :     0.896339
 12 C s       :     3.006929  s :     3.006929
      pz      :     0.941022  p :     3.035191
      px      :     1.013904
      py      :     1.080265
 13 H s       :     0.889833  s :     0.889833
 14 H s       :     0.901551  s :     0.901551
 15 O s       :     3.659619  s :     3.659619
      pz      :     1.584500  p :     4.701237
      px      :     1.303172
      py      :     1.813565
 16 C s       :     2.968129  s :     2.968129
      pz      :     1.070898  p :     3.011667
      px      :     1.007197
      py      :     0.933573
 17 C s       :     2.975184  s :     2.975184
      pz      :     1.052985  p :     2.979078
      px      :     0.900877
      py      :     1.025217
 18 C s       :     2.983565  s :     2.983565
      pz      :     1.077620  p :     3.261668
      px      :     1.144197
      py      :     1.039851
 19 C s       :     2.984259  s :     2.984259
      pz      :     0.822255  p :     3.048181
      px      :     1.113358
      py      :     1.112568
 20 O s       :     3.601534  s :     3.601534
      pz      :     1.361609  p :     4.729166
      px      :     1.756183
      py      :     1.611374
 21 H s       :     0.876137  s :     0.876137
 22 O s       :     3.692883  s :     3.692883
      pz      :     1.932051  p :     4.755592
      px      :     1.260016
      py      :     1.563525
 23 H s       :     0.879160  s :     0.879160
 24 H s       :     0.885579  s :     0.885579
 25 H s       :     0.858069  s :     0.858069
 26 H s       :     0.893944  s :     0.893944
 27 H s       :     0.906928  s :     0.906928
 28 H s       :     0.715589  s :     0.715589


                      *****************************
                      * MAYER POPULATION ANALYSIS *
                      *****************************

  NA   - Mulliken gross atomic population
  ZA   - Total nuclear charge
  QA   - Mulliken gross atomic charge
  VA   - Mayer's total valence
  BVA  - Mayer's bonded valence
  FA   - Mayer's free valence

  ATOM       NA         ZA         QA         VA         BVA        FA
  0 C      5.7119     6.0000     0.2881     3.6498     3.6498     0.0000
  1 C      6.2649     6.0000    -0.2649     3.7243     3.7243    -0.0000
  2 C      6.3024     6.0000    -0.3024     3.7637     3.7637    -0.0000
  3 C      6.0048     6.0000    -0.0048     3.6522     3.6522    -0.0000
  4 O      8.5042     8.0000    -0.5042     1.8179     1.8179    -0.0000
  5 H      0.8515     1.0000     0.1485     0.9340     0.9340     0.0000
  6 H      0.8504     1.0000     0.1496     0.9298     0.9298    -0.0000
  7 H      0.8431     1.0000     0.1569     0.9384     0.9384    -0.0000
  8 H      0.8549     1.0000     0.1451     0.9363     0.9363    -0.0000
  9 H      0.8349     1.0000     0.1651     0.9326     0.9326    -0.0000
 10 H      0.8482     1.0000     0.1518     0.9254     0.9254     0.0000
 11 H      0.8548     1.0000     0.1452     0.9281     0.9281     0.0000
 12 C      6.0181     6.0000    -0.0181     3.6226     3.6226     0.0000
 13 H      0.8451     1.0000     0.1549     0.9257     0.9257     0.0000
 14 H      0.8733     1.0000     0.1267     0.9320     0.9320     0.0000
 15 O      8.5184     8.0000    -0.5184     1.7958     1.7958    -0.0000
 16 C      5.9362     6.0000     0.0638     3.6193     3.6193     0.0000
 17 C      5.9281     6.0000     0.0719     3.6545     3.6545    -0.0000
 18 C      6.2948     6.0000    -0.2948     3.6766     3.6766    -0.0000
 19 C      6.0166     6.0000    -0.0166     3.6666     3.6666    -0.0000
 20 O      8.5232     8.0000    -0.5232     1.7672     1.7672     0.0000
 21 H      0.8373     1.0000     0.1627     0.9343     0.9343    -0.0000
 22 O      8.6028     8.0000    -0.6028     1.7525     1.7525    -0.0000
 23 H      0.8460     1.0000     0.1540     0.9388     0.9388    -0.0000
 24 H      0.8600     1.0000     0.1400     0.9400     0.9400    -0.0000
 25 H      0.7995     1.0000     0.2005     0.9451     0.9451    -0.0000
 26 H      0.8533     1.0000     0.1467     0.9325     0.9325     0.0000
 27 H      0.8689     1.0000     0.1311     0.9289     0.9289    -0.0000
 28 H      0.6526     1.0000     0.3474     0.8501     0.8501    -0.0000

  Mayer bond orders larger than 0.100000
B(  0-C ,  1-C ) :   0.9336 B(  0-C ,  4-O ) :   0.9238 B(  0-C ,  5-H ) :   0.9185 
B(  0-C , 15-O ) :   0.8275 B(  1-C ,  2-C ) :   0.9577 B(  1-C ,  6-H ) :   0.9322 
B(  1-C ,  7-H ) :   0.9360 B(  2-C ,  3-C ) :   0.9533 B(  2-C ,  8-H ) :   0.9443 
B(  2-C ,  9-H ) :   0.9434 B(  3-C ,  4-O ) :   0.8345 B(  3-C , 10-H ) :   0.9339 
B(  3-C , 11-H ) :   0.9385 B( 12-C , 13-H ) :   0.9217 B( 12-C , 14-H ) :   0.9076 
B( 12-C , 15-O ) :   0.8555 B( 12-C , 16-C ) :   0.8970 B( 16-C , 17-C ) :   0.9080 
B( 16-C , 20-O ) :   0.8793 B( 16-C , 21-H ) :   0.9204 B( 17-C , 18-C ) :   0.9287 
B( 17-C , 22-O ) :   0.8818 B( 17-C , 23-H ) :   0.9328 B( 18-C , 19-C ) :   0.9447 
B( 18-C , 24-H ) :   0.9373 B( 18-C , 25-H ) :   0.8970 B( 19-C , 20-O ) :   0.8375 
B( 19-C , 26-H ) :   0.9343 B( 19-C , 27-H ) :   0.9374 B( 22-O , 28-H ) :   0.8096 


-------
TIMINGS
-------

Total SCF time: 0 days 0 hours 5 min 29 sec 

Total time                  ....     329.638 sec
Sum of individual times     ....     289.692 sec  ( 87.9%)

Fock matrix formation       ....     250.704 sec  ( 76.1%)
  XC integration            ....      95.261 sec  ( 38.0% of F)
    Basis function eval.    ....       3.188 sec  (  3.3% of XC)
    Density eval.           ....       2.115 sec  (  2.2% of XC)
    XC-Functional eval.     ....       1.846 sec  (  1.9% of XC)
    XC-Potential eval.      ....       1.305 sec  (  1.4% of XC)
Diagonalization             ....       6.211 sec  (  1.9%)
Density matrix formation    ....       0.013 sec  (  0.0%)
Population analysis         ....       6.640 sec  (  2.0%)
Initial guess               ....       7.529 sec  (  2.3%)
Orbital Transformation      ....       0.000 sec  (  0.0%)
Orbital Orthonormalization  ....       0.000 sec  (  0.0%)
DIIS solution               ....       4.426 sec  (  1.3%)
SOSCF solution              ....       0.702 sec  (  0.2%)
Grid generation             ....      13.467 sec  (  4.1%)

-------------------------   --------------------
FINAL SINGLE POINT ENERGY      -652.836162813628
-------------------------   --------------------

------------------------------------------------------------------------------
                         ORCA SCF GRADIENT CALCULATION
------------------------------------------------------------------------------

Gradient of the Kohn-Sham DFT energy:
Kohn-Sham wavefunction type      ... RKS
Hartree-Fock exchange scaling    ...    0.200
Number of operators              ...    1
Number of atoms                  ...   29
Basis set dimensions             ...  149
Integral neglect threshold       ... 2.5e-11
Integral primitive cutoff        ... 2.5e-12

Nuclear repulsion gradient       ... done
One Electron Gradient            ... done
Pre-screening matrix             ... done
Starting the two electron gradient:
Two electron gradient done
Exchange-correlation gradient    ... done

------------------
CARTESIAN GRADIENT
------------------

   1   C   :    0.013762526    0.003630525   -0.005479505
   2   C   :    0.009376117   -0.003701598   -0.003877120
   3   C   :   -0.000180687   -0.000497143   -0.001741555
   4   C   :   -0.000725797   -0.005764309   -0.003879881
   5   O   :    0.016662669   -0.006222533    0.017592725
   6   H   :    0.003972961    0.002008416   -0.001091279
   7   H   :    0.000013321    0.002510399   -0.000025903
   8   H   :    0.000414714    0.002114089   -0.001129440
   9   H   :   -0.000546371    0.000736408    0.000079464
  10   H   :   -0.000527101    0.001606323    0.001047036
  11   H   :   -0.000547479    0.001038545    0.001445493
  12   H   :   -0.000244478    0.001134619    0.000704608
  13   C   :   -0.006643923   -0.007513214   -0.009298870
  14   H   :   -0.002496687   -0.002431216   -0.004442085
  15   H   :   -0.005309473   -0.000321347   -0.002384532
  16   O   :   -0.018145542    0.015249972    0.030117257
  17   C   :   -0.018712200   -0.009613830   -0.010803773
  18   C   :    0.031101134   -0.000621555   -0.011382307
  19   C   :    0.002061327    0.001347897   -0.005608910
  20   C   :   -0.002692169   -0.001052268   -0.004086064
  21   O   :    0.001787378    0.001363513    0.001281603
  22   H   :   -0.000849098    0.002218622    0.000128478
  23   O   :    0.015736501   -0.048175352   -0.001563283
  24   H   :    0.010369655    0.005142221   -0.000970535
  25   H   :    0.003488698    0.003132835    0.002600915
  26   H   :    0.005535714    0.001952565    0.002330204
  27   H   :   -0.000036218    0.001679080    0.001251572
  28   H   :    0.000843077   -0.000481726   -0.000023632
  29   H   :   -0.057468568    0.039530063    0.009209321

Difference to translation invariance:
           :    0.0000000000   -0.0000000001    0.0000000000

Norm of the cartesian gradient     ...    0.1106965541
RMS gradient                       ...    0.0118679163
MAX gradient                       ...    0.0574685683

-------
TIMINGS
-------

Total SCF gradient time            ...       29.618 sec

One electron gradient       ....       0.306 sec  (  1.0%)
Prescreening matrices       ....       0.050 sec  (  0.2%)
Two electron gradient       ....      15.094 sec  ( 51.0%)
XC gradient                 ....       8.937 sec  ( 30.2%)
------------------------------------------------------------------------------
                         ORCA GEOMETRY RELAXATION STEP
------------------------------------------------------------------------------

Reading the OPT-File                    .... done
Getting information on internals        .... done
Copying old internal coords+grads       .... done
Making the new internal coordinates     .... (new redundants).... done
Validating the new internal coordinates .... (new redundants).... done
Calculating the B-matrix                .... done
Calculating the G,G- and P matrices     .... done
Transforming gradient to internals      .... done
Projecting the internal gradient        .... done
Number of atoms                         ....  29
Number of internal coordinates          .... 172
Current Energy                          ....  -652.836162814 Eh
Current gradient norm                   ....     0.110696554 Eh/bohr
Maximum allowed component of the step   ....  0.300
Current trust radius                    ....  0.300
Evaluating the initial hessian          ....  (Almloef) done
Projecting the Hessian                  .... done
Forming the augmented Hessian           .... done
Diagonalizing the augmented Hessian     .... done
Last element of RFO vector              ....  0.931954251
Lowest eigenvalues of augmented Hessian:
 -0.039583221  0.007781441  0.033061773  0.033264653  0.036914555
Length of the computed step             ....  0.389049019
Warning: the length of the step is outside the trust region - taking restricted step instead
The input lambda is                     ....    -0.039583
   iter:   1  x=   -0.077691  g=    1.610138 f(x)=     0.061359
   iter:   2  x=   -0.100119  g=    0.810532 f(x)=     0.018179
   iter:   3  x=   -0.104223  g=    0.605375 f(x)=     0.002484
   iter:   4  x=   -0.104325  g=    0.576987 f(x)=     0.000059
   iter:   5  x=   -0.104325  g=    0.576307 f(x)=     0.000000
   iter:   6  x=   -0.104325  g=    0.576307 f(x)=     0.000000
   iter:   7  x=   -0.104325  g=    0.576307 f(x)=     0.000000
The output lambda is                    ....    -0.104325 (7 iterations)
The final length of the internal step   ....  0.300000000
Converting the step to cartesian space:
 Initial RMS(Int)=    0.0228747855
Transforming coordinates:
 Iter   0:  RMS(Cart)=    0.0996141880 RMS(Int)=    0.4785616691
 Iter   1:  RMS(Cart)=    0.0042868188 RMS(Int)=    0.0018259658
 Iter   2:  RMS(Cart)=    0.0003141273 RMS(Int)=    0.0001422972
 Iter   3:  RMS(Cart)=    0.0000273691 RMS(Int)=    0.0000116160
 Iter   4:  RMS(Cart)=    0.0000027594 RMS(Int)=    0.0000017826
 Iter   5:  RMS(Cart)=    0.0000002270 RMS(Int)=    0.0000001884
 Iter   6:  RMS(Cart)=    0.0000000253 RMS(Int)=    0.0000000115
Imposing constraints:
 Iter   0:  RMS(Cart)=    0.0000912104 RMS(Int)=    0.0000825482
 Iter   1:  RMS(Cart)=    0.0000607306 RMS(Int)=    0.0000673488
 Iter   2:  RMS(Cart)=    0.0000431626 RMS(Int)=    0.0000587995
 Iter   3:  RMS(Cart)=    0.0000318386 RMS(Int)=    0.0000537364
 Iter   4:  RMS(Cart)=    0.0000241854 RMS(Int)=    0.0000505275
 Iter   5:  RMS(Cart)=    0.0000189509 RMS(Int)=    0.0000483024
 Iter   6:  RMS(Cart)=    0.0000153740 RMS(Int)=    0.0000466006
 Iter   7:  RMS(Cart)=    0.0000129340 RMS(Int)=    0.0000451823
 Iter   8:  RMS(Cart)=    0.0000112624 RMS(Int)=    0.0000439241
 Iter   9:  RMS(Cart)=    0.0000101004 RMS(Int)=    0.0000427626
 Iter  10:  RMS(Cart)=    0.0000092718 RMS(Int)=    0.0000416652
 Iter  11:  RMS(Cart)=    0.0000086602 RMS(Int)=    0.0000406150
 Iter  12:  RMS(Cart)=    0.0000081905 RMS(Int)=    0.0000396031
 Iter  13:  RMS(Cart)=    0.0000078145 RMS(Int)=    0.0000386242
 Iter  14:  RMS(Cart)=    0.0000075017 RMS(Int)=    0.0000376755
 Iter  15:  RMS(Cart)=    0.0000072325 RMS(Int)=    0.0000367550
 Iter  16:  RMS(Cart)=    0.0000069939 RMS(Int)=    0.0000358613
 Iter  17:  RMS(Cart)=    0.0000067778 RMS(Int)=    0.0000349933
 Iter  18:  RMS(Cart)=    0.0000065783 RMS(Int)=    0.0000341500
 Iter  19:  RMS(Cart)=    0.0000063917 RMS(Int)=    0.0000333305
 Iter  20:  RMS(Cart)=    0.0000062153 RMS(Int)=    0.0000325341
 Iter  21:  RMS(Cart)=    0.0000060474 RMS(Int)=    0.0000317600
 Iter  22:  RMS(Cart)=    0.0000058866 RMS(Int)=    0.0000310076
 Iter  23:  RMS(Cart)=    0.0000057320 RMS(Int)=    0.0000302760
 Iter  24:  RMS(Cart)=    0.0000055829 RMS(Int)=    0.0000295648
 Iter  25:  RMS(Cart)=    0.0000054388 RMS(Int)=    0.0000288731
 Iter  26:  RMS(Cart)=    0.0000052993 RMS(Int)=    0.0000282005
 Iter  27:  RMS(Cart)=    0.0000051641 RMS(Int)=    0.0000275463
 Iter  28:  RMS(Cart)=    0.0000050330 RMS(Int)=    0.0000269099
 Iter  29:  RMS(Cart)=    0.0000049058 RMS(Int)=    0.0000262909
 Iter  30:  RMS(Cart)=    0.0000047822 RMS(Int)=    0.0000256886
 Iter  31:  RMS(Cart)=    0.0000046622 RMS(Int)=    0.0000251026
 Iter  32:  RMS(Cart)=    0.0000045455 RMS(Int)=    0.0000245324
 Iter  33:  RMS(Cart)=    0.0000044321 RMS(Int)=    0.0000239774
 Iter  34:  RMS(Cart)=    0.0000043219 RMS(Int)=    0.0000234373
 Iter  35:  RMS(Cart)=    0.0000042148 RMS(Int)=    0.0000229115
 Iter  36:  RMS(Cart)=    0.0000041106 RMS(Int)=    0.0000223997
 Iter  37:  RMS(Cart)=    0.0000040093 RMS(Int)=    0.0000219014
[...]
  29   2.0000      -0.487799       -13.2737 
  30   2.0000      -0.474435       -12.9100 
  31   2.0000      -0.452528       -12.3139 
  32   2.0000      -0.448299       -12.1988 
  33   2.0000      -0.440371       -11.9831 
  34   2.0000      -0.424676       -11.5560 
  35   2.0000      -0.410720       -11.1763 
  36   2.0000      -0.403206       -10.9718 
  37   2.0000      -0.383593       -10.4381 
  38   2.0000      -0.372475       -10.1356 
  39   2.0000      -0.365152        -9.9363 
  40   2.0000      -0.360199        -9.8015 
  41   2.0000      -0.355929        -9.6853 
  42   2.0000      -0.352157        -9.5827 
  43   2.0000      -0.325720        -8.8633 
  44   2.0000      -0.319216        -8.6863 
  45   2.0000      -0.312167        -8.4945 
  46   2.0000      -0.299610        -8.1528 
  47   2.0000      -0.270764        -7.3679 
  48   2.0000      -0.262690        -7.1482 
  49   2.0000      -0.254971        -6.9381 
  50   2.0000      -0.237781        -6.4703 
  51   0.0000       0.066441         1.8080 
  52   0.0000       0.082218         2.2373 
  53   0.0000       0.088459         2.4071 
  54   0.0000       0.103907         2.8275 
  55   0.0000       0.109472         2.9789 
  56   0.0000       0.114239         3.1086 
  57   0.0000       0.123944         3.3727 
  58   0.0000       0.131688         3.5834 
  59   0.0000       0.133387         3.6296 
  60   0.0000       0.147305         4.0084 
  61   0.0000       0.147583         4.0159 
  62   0.0000       0.151868         4.1325 
  63   0.0000       0.159045         4.3278 
  64   0.0000       0.162448         4.4204 
  65   0.0000       0.172802         4.7022 
  66   0.0000       0.175298         4.7701 
  67   0.0000       0.181429         4.9369 
  68   0.0000       0.189984         5.1697 
  69   0.0000       0.197965         5.3869 
  70   0.0000       0.215811         5.8725 
  71   0.0000       0.218489         5.9454 
  72   0.0000       0.229649         6.2491 
  73   0.0000       0.248354         6.7580 
  74   0.0000       0.248908         6.7731 
  75   0.0000       0.253415         6.8958 
  76   0.0000       0.262275         7.1369 
  77   0.0000       0.271316         7.3829 
  78   0.0000       0.299114         8.1393 
  79   0.0000       0.312434         8.5018 
  80   0.0000       0.314656         8.5622 
  81   0.0000       0.513565        13.9748 
  82   0.0000       0.539737        14.6870 
  83   0.0000       0.547213        14.8904 
  84   0.0000       0.551839        15.0163 
  85   0.0000       0.563251        15.3268 
  86   0.0000       0.566603        15.4181 
  87   0.0000       0.579298        15.7635 
  88   0.0000       0.582880        15.8610 
  89   0.0000       0.594418        16.1749 
  90   0.0000       0.601170        16.3587 
  91   0.0000       0.610512        16.6129 
  92   0.0000       0.622184        16.9305 
  93   0.0000       0.633595        17.2410 
  94   0.0000       0.640094        17.4179 
  95   0.0000       0.653408        17.7801 
  96   0.0000       0.656057        17.8522 
  97   0.0000       0.665522        18.1098 
  98   0.0000       0.688593        18.7376 
  99   0.0000       0.720069        19.5941 
 100   0.0000       0.749488        20.3946 
 101   0.0000       0.763266        20.7695 
 102   0.0000       0.784586        21.3497 
 103   0.0000       0.814636        22.1674 
 104   0.0000       0.819294        22.2941 
 105   0.0000       0.835937        22.7470 
 106   0.0000       0.840740        22.8777 
 107   0.0000       0.853184        23.2163 
 108   0.0000       0.862825        23.4786 
 109   0.0000       0.871349        23.7106 
 110   0.0000       0.874163        23.7872 
 111   0.0000       0.882479        24.0135 
 112   0.0000       0.895703        24.3733 
 113   0.0000       0.902497        24.5582 
 114   0.0000       0.922567        25.1043 
 115   0.0000       0.926685        25.2164 
 116   0.0000       0.933524        25.4025 
 117   0.0000       0.941006        25.6061 
 118   0.0000       0.951499        25.8916 
 119   0.0000       0.963369        26.2146 
 120   0.0000       0.967625        26.3304 
 121   0.0000       0.981467        26.7071 
 122   0.0000       0.992449        27.0059 
 123   0.0000       1.020248        27.7624 
 124   0.0000       1.041809        28.3491 
 125   0.0000       1.073631        29.2150 
 126   0.0000       1.104109        30.0443 
 127   0.0000       1.120887        30.5009 
 128   0.0000       1.127317        30.6759 
 129   0.0000       1.163018        31.6473 
 130   0.0000       1.183313        32.1996 
 131   0.0000       1.237905        33.6851 
 132   0.0000       1.265486        34.4356 
 133   0.0000       1.308174        35.5972 
 134   0.0000       1.318435        35.8764 
 135   0.0000       1.361873        37.0585 
 136   0.0000       1.386870        37.7387 
 137   0.0000       1.421068        38.6692 
 138   0.0000       1.433380        39.0042 
 139   0.0000       1.478401        40.2293 
 140   0.0000       1.507744        41.0278 
 141   0.0000       1.609845        43.8061 
 142   0.0000       1.635293        44.4986 
 143   0.0000       1.748610        47.5821 
 144   0.0000       1.765121        48.0314 
 145   0.0000       1.890317        51.4381 
 146   0.0000       1.953392        53.1545 
 147   0.0000       2.082498        56.6676 
 148   0.0000       2.123375        57.7800 

                    ********************************
                    * MULLIKEN POPULATION ANALYSIS *
                    ********************************

-----------------------
MULLIKEN ATOMIC CHARGES
-----------------------
   0 C :    0.290107
   1 C :   -0.254697
   2 C :   -0.301636
   3 C :   -0.004406
   4 O :   -0.504863
   5 H :    0.141371
   6 H :    0.144382
   7 H :    0.149716
   8 H :    0.143983
   9 H :    0.164317
  10 H :    0.150791
  11 H :    0.144112
  12 C :    0.006905
  13 H :    0.148038
  14 H :    0.121765
  15 O :   -0.521893
  16 C :    0.068434
  17 C :    0.074439
  18 C :   -0.292121
  19 C :   -0.015871
  20 O :   -0.527548
  21 H :    0.153028
  22 O :   -0.602959
  23 H :    0.152991
  24 H :    0.142361
  25 H :    0.187446
  26 H :    0.146665
  27 H :    0.134075
  28 H :    0.361070
Sum of atomic charges:   -0.0000000

--------------------------------
MULLIKEN REDUCED ORBITAL CHARGES
--------------------------------
  0 C s       :     3.199780  s :     3.199780
      pz      :     0.804786  p :     2.510113
      px      :     0.686867
      py      :     1.018460
  1 C s       :     3.300052  s :     3.300052
      pz      :     0.983608  p :     2.954645
      px      :     1.029871
      py      :     0.941166
  2 C s       :     3.316418  s :     3.316418
      pz      :     0.905914  p :     2.985218
      px      :     1.088568
      py      :     0.990735
  3 C s       :     3.263915  s :     3.263915
      pz      :     0.933369  p :     2.740492
      px      :     1.065537
      py      :     0.741586
  4 O s       :     3.940985  s :     3.940985
      pz      :     1.288764  p :     4.563878
      px      :     1.754503
      py      :     1.520610
  5 H s       :     0.858629  s :     0.858629
  6 H s       :     0.855618  s :     0.855618
  7 H s       :     0.850284  s :     0.850284
  8 H s       :     0.856017  s :     0.856017
  9 H s       :     0.835683  s :     0.835683
 10 H s       :     0.849209  s :     0.849209
 11 H s       :     0.855888  s :     0.855888
 12 C s       :     3.250355  s :     3.250355
      pz      :     0.855385  p :     2.742740
      px      :     0.883698
      py      :     1.003657
 13 H s       :     0.851962  s :     0.851962
 14 H s       :     0.878235  s :     0.878235
 15 O s       :     3.919465  s :     3.919465
      pz      :     1.571041  p :     4.602428
      px      :     1.248711
      py      :     1.782676
 16 C s       :     3.259175  s :     3.259175
      pz      :     0.957060  p :     2.672392
      px      :     0.919782
      py      :     0.795551
 17 C s       :     3.268291  s :     3.268291
      pz      :     0.923236  p :     2.657270
      px      :     0.780864
      py      :     0.953170
 18 C s       :     3.309634  s :     3.309634
      pz      :     0.978468  p :     2.982488
      px      :     1.079513
      py      :     0.924506
 19 C s       :     3.266959  s :     3.266959
      pz      :     0.669850  p :     2.748912
      px      :     1.048121
      py      :     1.030941
 20 O s       :     3.945041  s :     3.945041
      pz      :     1.280579  p :     4.582507
      px      :     1.740454
      py      :     1.561474
 21 H s       :     0.846972  s :     0.846972
 22 O s       :     3.919056  s :     3.919056
      pz      :     1.926366  p :     4.683902
      px      :     1.194802
      py      :     1.562734
 23 H s       :     0.847009  s :     0.847009
 24 H s       :     0.857639  s :     0.857639
 25 H s       :     0.812554  s :     0.812554
 26 H s       :     0.853335  s :     0.853335
 27 H s       :     0.865925  s :     0.865925
 28 H s       :     0.638930  s :     0.638930


                     *******************************
                     * LOEWDIN POPULATION ANALYSIS *
                     *******************************

----------------------
LOEWDIN ATOMIC CHARGES
----------------------
   0 C :    0.177502
   1 C :   -0.223146
   2 C :   -0.216737
   3 C :   -0.027052
   4 O :   -0.314399
   5 H :    0.097836
   6 H :    0.113665
   7 H :    0.119531
   8 H :    0.115434
   9 H :    0.119972
  10 H :    0.106969
  11 H :    0.103534
  12 C :   -0.034637
  13 H :    0.103958
  14 H :    0.095001
  15 O :   -0.331318
  16 C :    0.012838
  17 C :    0.039274
  18 C :   -0.243365
  19 C :   -0.031810
  20 O :   -0.331375
  21 H :    0.114864
  22 O :   -0.417381
  23 H :    0.116709
  24 H :    0.115966
  25 H :    0.135880
  26 H :    0.105981
  27 H :    0.095300
  28 H :    0.281005

-------------------------------
LOEWDIN REDUCED ORBITAL CHARGES
-------------------------------
  0 C s       :     2.953863  s :     2.953863
      pz      :     0.927771  p :     2.868635
      px      :     0.850779
      py      :     1.090085
  1 C s       :     2.979528  s :     2.979528
      pz      :     1.076305  p :     3.243618
      px      :     1.108866
      py      :     1.058448
  2 C s       :     2.971171  s :     2.971171
      pz      :     1.030608  p :     3.245567
      px      :     1.134533
      py      :     1.080425
  3 C s       :     2.985029  s :     2.985029
      pz      :     1.034281  p :     3.042023
      px      :     1.125001
      py      :     0.882740
  4 O s       :     3.598740  s :     3.598740
      pz      :     1.359641  p :     4.715659
      px      :     1.787693
      py      :     1.568325
  5 H s       :     0.902164  s :     0.902164
  6 H s       :     0.886335  s :     0.886335
  7 H s       :     0.880469  s :     0.880469
  8 H s       :     0.884566  s :     0.884566
  9 H s       :     0.880028  s :     0.880028
 10 H s       :     0.893031  s :     0.893031
 11 H s       :     0.896466  s :     0.896466
 12 C s       :     2.980691  s :     2.980691
      pz      :     0.965849  p :     3.053946
      px      :     1.009071
      py      :     1.079025
 13 H s       :     0.896042  s :     0.896042
 14 H s       :     0.904999  s :     0.904999
 15 O s       :     3.583381  s :     3.583381
      pz      :     1.620319  p :     4.747937
      px      :     1.314645
      py      :     1.812973
 16 C s       :     2.963596  s :     2.963596
      pz      :     1.064129  p :     3.023566
      px      :     1.032036
      py      :     0.927401
 17 C s       :     2.953379  s :     2.953379
      pz      :     1.052349  p :     3.007347
      px      :     0.909645
      py      :     1.045352
 18 C s       :     2.983982  s :     2.983982
      pz      :     1.077967  p :     3.259383
      px      :     1.137732
      py      :     1.043683
 19 C s       :     2.985050  s :     2.985050
      pz      :     0.816704  p :     3.046760
      px      :     1.122103
      py      :     1.107953
 20 O s       :     3.601477  s :     3.601477
      pz      :     1.347682  p :     4.729898
      px      :     1.771786
      py      :     1.610430
 21 H s       :     0.885136  s :     0.885136
 22 O s       :     3.614911  s :     3.614911
      pz      :     1.932665  p :     4.802470
      px      :     1.262435
      py      :     1.607370
 23 H s       :     0.883291  s :     0.883291
 24 H s       :     0.884034  s :     0.884034
 25 H s       :     0.864120  s :     0.864120
 26 H s       :     0.894019  s :     0.894019
 27 H s       :     0.904700  s :     0.904700
 28 H s       :     0.718995  s :     0.718995


                      *****************************
                      * MAYER POPULATION ANALYSIS *
                      *****************************

  NA   - Mulliken gross atomic population
  ZA   - Total nuclear charge
  QA   - Mulliken gross atomic charge
  VA   - Mayer's total valence
  BVA  - Mayer's bonded valence
  FA   - Mayer's free valence

  ATOM       NA         ZA         QA         VA         BVA        FA
  0 C      5.7099     6.0000     0.2901     3.6680     3.6680     0.0000
  1 C      6.2547     6.0000    -0.2547     3.7236     3.7236    -0.0000
  2 C      6.3016     6.0000    -0.3016     3.7655     3.7655    -0.0000
  3 C      6.0044     6.0000    -0.0044     3.6583     3.6583    -0.0000
  4 O      8.5049     8.0000    -0.5049     1.7962     1.7962     0.0000
  5 H      0.8586     1.0000     0.1414     0.9381     0.9381    -0.0000
  6 H      0.8556     1.0000     0.1444     0.9320     0.9320    -0.0000
  7 H      0.8503     1.0000     0.1497     0.9394     0.9394    -0.0000
  8 H      0.8560     1.0000     0.1440     0.9367     0.9367    -0.0000
  9 H      0.8357     1.0000     0.1643     0.9338     0.9338     0.0000
 10 H      0.8492     1.0000     0.1508     0.9257     0.9257     0.0000
 11 H      0.8559     1.0000     0.1441     0.9288     0.9288     0.0000
 12 C      5.9931     6.0000     0.0069     3.6156     3.6156    -0.0000
 13 H      0.8520     1.0000     0.1480     0.9261     0.9261    -0.0000
 14 H      0.8782     1.0000     0.1218     0.9366     0.9366     0.0000
 15 O      8.5219     8.0000    -0.5219     1.7435     1.7435    -0.0000
 16 C      5.9316     6.0000     0.0684     3.6157     3.6157    -0.0000
 17 C      5.9256     6.0000     0.0744     3.6597     3.6597    -0.0000
 18 C      6.2921     6.0000    -0.2921     3.6848     3.6848    -0.0000
 19 C      6.0159     6.0000    -0.0159     3.6665     3.6665    -0.0000
 20 O      8.5275     8.0000    -0.5275     1.7654     1.7654    -0.0000
 21 H      0.8470     1.0000     0.1530     0.9345     0.9345    -0.0000
 22 O      8.6030     8.0000    -0.6030     1.7440     1.7440    -0.0000
 23 H      0.8470     1.0000     0.1530     0.9366     0.9366    -0.0000
 24 H      0.8576     1.0000     0.1424     0.9408     0.9408     0.0000
 25 H      0.8126     1.0000     0.1874     0.9459     0.9459    -0.0000
 26 H      0.8533     1.0000     0.1467     0.9313     0.9313     0.0000
 27 H      0.8659     1.0000     0.1341     0.9286     0.9286    -0.0000
 28 H      0.6389     1.0000     0.3611     0.8347     0.8347    -0.0000

  Mayer bond orders larger than 0.100000
B(  0-C ,  1-C ) :   0.9379 B(  0-C ,  4-O ) :   0.9265 B(  0-C ,  5-H ) :   0.9178 
B(  0-C , 15-O ) :   0.8350 B(  1-C ,  2-C ) :   0.9554 B(  1-C ,  6-H ) :   0.9349 
B(  1-C ,  7-H ) :   0.9380 B(  2-C ,  3-C ) :   0.9547 B(  2-C ,  8-H ) :   0.9448 
B(  2-C ,  9-H ) :   0.9431 B(  3-C ,  4-O ) :   0.8350 B(  3-C , 10-H ) :   0.9346 
B(  3-C , 11-H ) :   0.9397 B( 12-C , 13-H ) :   0.9191 B( 12-C , 14-H ) :   0.9073 
B( 12-C , 15-O ) :   0.8435 B( 12-C , 16-C ) :   0.9088 B( 16-C , 17-C ) :   0.9072 
B( 16-C , 20-O ) :   0.8757 B( 16-C , 21-H ) :   0.9207 B( 17-C , 18-C ) :   0.9256 
B( 17-C , 22-O ) :   0.8905 B( 17-C , 23-H ) :   0.9352 B( 18-C , 19-C ) :   0.9455 
B( 18-C , 24-H ) :   0.9384 B( 18-C , 25-H ) :   0.9116 B( 19-C , 20-O ) :   0.8370 
B( 19-C , 26-H ) :   0.9354 B( 19-C , 27-H ) :   0.9379 B( 22-O , 28-H ) :   0.7968 


-------
TIMINGS
-------

Total SCF time: 0 days 0 hours 1 min 57 sec 

Total time                  ....     117.625 sec
Sum of individual times     ....      94.936 sec  ( 80.7%)

Fock matrix formation       ....      88.607 sec  ( 75.3%)
  XC integration            ....      40.597 sec  ( 45.8% of F)
    Basis function eval.    ....       2.042 sec  (  5.0% of XC)
    Density eval.           ....       1.668 sec  (  4.1% of XC)
    XC-Functional eval.     ....       0.634 sec  (  1.6% of XC)
    XC-Potential eval.      ....       0.785 sec  (  1.9% of XC)
Diagonalization             ....       0.249 sec  (  0.2%)
Density matrix formation    ....       0.007 sec  (  0.0%)
Population analysis         ....       0.295 sec  (  0.3%)
Initial guess               ....       0.011 sec  (  0.0%)
Orbital Transformation      ....       0.000 sec  (  0.0%)
Orbital Orthonormalization  ....       0.003 sec  (  0.0%)
DIIS solution               ....       0.001 sec  (  0.0%)
SOSCF solution              ....       0.247 sec  (  0.2%)
Grid generation             ....       5.518 sec  (  4.7%)

-------------------------   --------------------
FINAL SINGLE POINT ENERGY      -652.863777018489
-------------------------   --------------------

                                *** OPTIMIZATION RUN DONE ***

                            ***************************************
                            *     ORCA property calculations      *
                            ***************************************

                                    ---------------------
                                    Active property flags
                                    ---------------------
   (+) Dipole Moment


------------------------------------------------------------------------------
                       ORCA ELECTRIC PROPERTIES CALCULATION
------------------------------------------------------------------------------

Dipole Moment Calculation                       ... on
Quadrupole Moment Calculation                   ... off
Polarizability Calculation                      ... off
GBWName                                         ... project_8048/ensemble_225_150.gbw
Electron density file                           ... project_8048/ensemble_225_150.scfp
The origin for moment calculation is the CENTER OF MASS  = (-43.545093, 49.191342 88.443985)

-------------
DIPOLE MOMENT
-------------
                                X             Y             Z
Electronic contribution:     -3.58793      -3.35650      -1.42600
Nuclear contribution   :      4.49790       4.22144       1.20663
                        -----------------------------------------
Total Dipole Moment    :      0.90997       0.86494      -0.21937
                        -----------------------------------------
Magnitude (a.u.)       :      1.27448
Magnitude (Debye)      :      3.23947



--------------------
Rotational spectrum 
--------------------
 
Rotational constants in cm-1:     0.053624     0.014369     0.013974 
Rotational constants in MHz :  1607.614946   430.786759   418.935293 

 Dipole components along the rotational axes: 
x,y,z [a.u.] :    -1.172219    -0.311815    -0.391112 
x,y,z [Debye]:    -2.979543    -0.792571    -0.994127 

 

Timings for individual modules:

Sum of individual times         ...     1423.606 sec (=  23.727 min)
GTO integral calculation        ...       19.125 sec (=   0.319 min)   1.3 %
SCF iterations                  ...     1204.915 sec (=  20.082 min)  84.6 %
SCF Gradient evaluation         ...      172.394 sec (=   2.873 min)  12.1 %
Geometry relaxation             ...       27.172 sec (=   0.453 min)   1.9 %
                             ****ORCA TERMINATED NORMALLY****
TOTAL RUN TIME: 0 days 0 hours 24 minutes 40 seconds 653 msec
