
                                 *****************
                                 * O   R   C   A *
                                 *****************

           --- An Ab Initio, DFT and Semiempirical electronic structure package ---

                  #######################################################
                  #                        -***-                        #
                  #          Department of theory and spectroscopy      #
                  #               Directorship: Frank Neese             #
                  #        Max Planck Institute fuer Kohlenforschung    #
                  #                Kaiser Wilhelm Platz 1               #
                  #                 D-45470 Muelheim/Ruhr               #
                  #                      Germany                        #
                  #                                                     #
                  #                  All rights reserved                #
                  #                        -***-                        #
                  #######################################################


                         Program Version 4.2.0 -  RELEASE  -


 With contributions from (in alphabetic order):
   Daniel Aravena         : Magnetic Suceptibility
   Michael Atanasov       : Ab Initio Ligand Field Theory (pilot matlab implementation)
   Alexander A. Auer      : GIAO ZORA, VPT2
   Ute Becker             : Parallelization
   Giovanni Bistoni       : ED, misc. LED, open-shell LED, HFLED
   Martin Brehm           : Molecular dynamics
   Dmytro Bykov           : SCF Hessian
   Vijay G. Chilkuri      : MRCI spin determinant printing, contributions to CSF-ICE
   Dipayan Datta          : RHF DLPNO-CCSD density
   Achintya Kumar Dutta   : EOM-CC, STEOM-CC
   Dmitry Ganyushin       : Spin-Orbit,Spin-Spin,Magnetic field MRCI
   Miquel Garcia          : C-PCM Hessian, Gaussian charge scheme
   Yang Guo               : DLPNO-NEVPT2, CIM, IAO-localization
   Andreas Hansen         : Spin unrestricted coupled pair/coupled cluster methods
   Benjamin Helmich-Paris : CASSCF linear response (MC-RPA)
   Lee Huntington         : MR-EOM, pCC
   Robert Izsak           : Overlap fitted RIJCOSX, COSX-SCS-MP3, EOM
   Christian Kollmar      : KDIIS, OOCD, Brueckner-CCSD(T), CCSD density
   Simone Kossmann        : Meta GGA functionals, TD-DFT gradient, OOMP2, MP2 Hessian
   Martin Krupicka        : AUTO-CI
   Lucas Lang             : DCDCAS
   Dagmar Lenk            : GEPOL surface, SMD
   Dimitrios Liakos       : Extrapolation schemes; Compound Job, initial MDCI parallelization
   Dimitrios Manganas     : Further ROCIS development; embedding schemes
   Dimitrios Pantazis     : SARC Basis sets
   Taras Petrenko         : DFT Hessian,TD-DFT gradient, ASA, ECA, R-Raman, ABS, FL, XAS/XES, NRVS
   Peter Pinski           : DLPNO-MP2, DLPNO-MP2 Gradient
   Christoph Reimann      : Effective Core Potentials
   Marius Retegan         : Local ZFS, SOC
   Christoph Riplinger    : Optimizer, TS searches, QM/MM, DLPNO-CCSD(T), (RO)-DLPNO pert. Triples
   Tobias Risthaus        : Range-separated hybrids, TD-DFT gradient, RPA, STAB
   Michael Roemelt        : Original ROCIS implementation
   Masaaki Saitow         : Open-shell DLPNO-CCSD energy and density
   Barbara Sandhoefer     : DKH picture change effects
   Avijit Sen             : IP-ROCIS
   Kantharuban Sivalingam : CASSCF convergence, NEVPT2, FIC-MRCI
   Bernardo de Souza      : ESD, SOC TD-DFT
   Georgi Stoychev        : AutoAux, RI-MP2 NMR
   Willem Van den Heuvel  : Paramagnetic NMR
   Boris Wezisla          : Elementary symmetry handling
   Frank Wennmohs         : Technical directorship


 We gratefully acknowledge several colleagues who have allowed us to
 interface, adapt or use parts of their codes:
   Stefan Grimme, W. Hujo, H. Kruse,             : VdW corrections, initial TS optimization,
                  C. Bannwarth                     DFT functionals, gCP, sTDA/sTD-DF
   Ed Valeev, F. Pavosevic, A. Kumar             : LibInt (2-el integral package), F12 methods
   Garnet Chan, S. Sharma, J. Yang, R. Olivares  : DMRG
   Ulf Ekstrom                                   : XCFun DFT Library
   Mihaly Kallay                                 : mrcc  (arbitrary order and MRCC methods)
   Andreas Klamt, Michael Diedenhofen            : otool_cosmo (COSMO solvation model)
   Jiri Pittner, Ondrej Demel                    : Mk-CCSD
   Frank Weinhold                                : gennbo (NPA and NBO analysis)
   Christopher J. Cramer and Donald G. Truhlar   : smd solvation model
   Lars Goerigk                                  : TD-DFT with DH, B97 family of functionals
   V. Asgeirsson, H. Jonsson                     : NEB implementation
   FAccTs GmbH                                   : IRC, NEB, NEB-TS, Multilevel, MM, QM/MM, CI optimization
   S Lehtola, MJT Oliveira, MAL Marques          : LibXC Library


 Your calculation uses the libint2 library for the computation of 2-el integrals
 For citations please refer to: http://libint.valeyev.net

 Your ORCA version has been built with support for libXC version: 4.2.3
 For citations please refer to: https://tddft.org/programs/libxc/

 This ORCA versions uses:
   CBLAS   interface :  Fast vector & matrix operations
   LAPACKE interface :  Fast linear algebra routines
   SCALAPACK package :  Parallel linear algebra routines


----- Orbital basis set information -----
Your calculation utilizes the basis: 6-31G
   H-He, Li-Ne : W. J. Hehre, R. Ditchfield and J.A. Pople, J. Chem. Phys. 56, 2257 (1972).
                 Note: He and Ne are unpublished basis sets taken from the Gaussian program.
                 Note: Li and B from J. D. Dill and J. A. Pople, J. Chem. Phys. 62, 2921 (1975).
   Na - Ar     : M. M. Francl, W. J. Pietro, W. J. Hehre, J. S. Binkley, M. S. Gordon, 
                 D. J. DeFrees and J. A. Pople, J. Chem. Phys. 77, 3654 (1982).
   K - Zn      : V. A. Rassolov, J. A. Pople, M. A. Ratner, and T. L. Windus, J. Chem. Phys. 109, 1223 (1998).

================================================================================
                                        WARNINGS
                       Please study these warnings very carefully!
================================================================================


WARNING: Geometry Optimization
  ===> : Switching off AutoStart
         For restart on a previous wavefunction, please use MOREAD

INFO   : the flag for use of LIBINT has been found!

================================================================================
                                       INPUT FILE
================================================================================
NAME = project_8051/ensemble_150_45.inp
|  1> # Test redundant internal optimization
|  2> #
|  3> ! RKS B3LYP  Opt TightSCF SmallPrint
|  4> 
|  5> %basis
|  6>         Basis "6-31G"
|  7> end
|  8> 
|  9> %geom
| 10> Constraints
| 11> { D 4  0  15  12  150.0   C } # D for Dihedral angle
| 12> { D 0  15  12  16  45.0   C } # D for Dihedral angle
| 13> { D 0  4  3  2   C } # D for Dihedral angle
| 14> { D 4  3  2  1   C } # D for Dihedral angle
| 15> { D 3  2  1  0   C } # D for Dihedral angle
| 16> { D 2  1  0  4   C } # D for Dihedral angle
| 17> { D 1  0  4  3   C } # D for Dihedral angle
| 18> { D 16  20  19  18   C } # D for Dihedral angle
| 19> { D 20  19  18  17   C } # D for Dihedral angle
| 20> { D 19  18  17  16   C } # D for Dihedral angle
| 21> { D 18  17  16  20   C } # D for Dihedral angle
| 22> { D 17  16  20  19   C } # D for Dihedral angle
| 23> { D 15  12  16  20   C } # D for Dihedral angle
| 24> end
| 25> end
| 26> 
| 27> 
| 28> #%pal 
| 29> #nprocs 8
| 30> #end
| 31> 
| 32> * xyz 0 1
| 33> C  -21.048   26.222   46.251
| 34> C  -20.361   27.558   45.944
| 35> C  -20.329   28.222   47.341
| 36> C  -20.110   27.022   48.296
| 37> O  -20.473   25.807   47.535
| 38> H  -20.833   25.428   45.533
| 39> H  -19.344   27.382   45.576
| 40> H  -20.898   28.157   45.201
| 41> H  -19.543   28.978   47.434
| 42> H  -21.289   28.710   47.548
| 43> H  -20.733   27.082   49.195
| 44> H  -19.064   26.913   48.597
| 45> C  -23.210   27.459   45.431
| 46> H  -24.298   27.325   45.404
| 47> H  -22.997   28.470   45.801
| 48> O  -22.586   26.394   46.375
| 49> C  -22.669   27.363   43.978
| 50> C  -23.072   26.038   43.321
| 51> C  -24.540   26.319   42.921
| 52> C  -24.518   27.820   42.537
| 53> O  -23.290   28.388   43.132
| 54> H  -21.596   27.559   43.982
| 55> H  -22.456   25.857   42.432
| 56> O  -22.928   24.817   44.271
| 57> H  -24.885   25.683   42.100
| 58> H  -25.202   26.147   43.778
| 59> H  -25.388   28.363   42.922
| 60> H  -24.455   27.973   41.457
| 61> H  -23.536   24.977   45.168
| 62> *
| 63> 
| 64>                          ****END OF INPUT****
================================================================================

                       *****************************
                       * Geometry Optimization Run *
                       *****************************

Geometry optimization settings:
Update method            Update   .... BFGS
Choice of coordinates    CoordSys .... Z-matrix Internals
Initial Hessian          InHess   .... Almoef's Model

Convergence Tolerances:
Energy Change            TolE     ....  5.0000e-06 Eh
Max. Gradient            TolMAXG  ....  3.0000e-04 Eh/bohr
RMS Gradient             TolRMSG  ....  1.0000e-04 Eh/bohr
Max. Displacement        TolMAXD  ....  4.0000e-03 bohr
RMS Displacement         TolRMSD  ....  2.0000e-03 bohr
Strict Convergence                ....  False
------------------------------------------------------------------------------
                        ORCA OPTIMIZATION COORDINATE SETUP
------------------------------------------------------------------------------

The optimization will be done in new redundant internal coordinates
Making redundant internal coordinates   ...  (new redundants) done
Evaluating the initial hessian          ...  (Almloef) done
Evaluating the coordinates              ...  done
Calculating the B-matrix                .... done
Calculating the G-matrix                .... done
Diagonalizing the G-matrix              .... done
Imposing constraints:
 Iter   0:  RMS(Cart)=    0.0002033472 RMS(Int)=    0.0000705075
 Iter   1:  RMS(Cart)=    0.0000976850 RMS(Int)=    0.0000382271
 Iter   2:  RMS(Cart)=    0.0000497086 RMS(Int)=    0.0000228344
 Iter   3:  RMS(Cart)=    0.0000272848 RMS(Int)=    0.0000148339
 Iter   4:  RMS(Cart)=    0.0000162068 RMS(Int)=    0.0000102445
 Iter   5:  RMS(Cart)=    0.0000102788 RMS(Int)=    0.0000074227
 Iter   6:  RMS(Cart)=    0.0000068299 RMS(Int)=    0.0000056405
 Iter   7:  RMS(Cart)=    0.0000046852 RMS(Int)=    0.0000045201
 Iter   8:  RMS(Cart)=    0.0000032917 RMS(Int)=    0.0000038276
 Iter   9:  RMS(Cart)=    0.0000023633 RMS(Int)=    0.0000034028
 Iter  10:  RMS(Cart)=    0.0000017369 RMS(Int)=    0.0000031366
 Iter  11:  RMS(Cart)=    0.0000013128 RMS(Int)=    0.0000029600
 Iter  12:  RMS(Cart)=    0.0000010261 RMS(Int)=    0.0000028324
 Iter  13:  RMS(Cart)=    0.0000008332 RMS(Int)=    0.0000027315
 Iter  14:  RMS(Cart)=    0.0000007034 RMS(Int)=    0.0000026454
 Iter  15:  RMS(Cart)=    0.0000006155 RMS(Int)=    0.0000025679
 Iter  16:  RMS(Cart)=    0.0000005548 RMS(Int)=    0.0000024958
 Iter  17:  RMS(Cart)=    0.0000005113 RMS(Int)=    0.0000024274
 Iter  18:  RMS(Cart)=    0.0000004788 RMS(Int)=    0.0000023618
 Iter  19:  RMS(Cart)=    0.0000004534 RMS(Int)=    0.0000022986
 Iter  20:  RMS(Cart)=    0.0000004325 RMS(Int)=    0.0000022376
 Iter  21:  RMS(Cart)=    0.0000004147 RMS(Int)=    0.0000021784
 Iter  22:  RMS(Cart)=    0.0000003991 RMS(Int)=    0.0000021211
 Iter  23:  RMS(Cart)=    0.0000003850 RMS(Int)=    0.0000020656
 Iter  24:  RMS(Cart)=    0.0000003720 RMS(Int)=    0.0000020117
 Iter  25:  RMS(Cart)=    0.0000003599 RMS(Int)=    0.0000019594
 Iter  26:  RMS(Cart)=    0.0000003485 RMS(Int)=    0.0000019086
 Iter  27:  RMS(Cart)=    0.0000003377 RMS(Int)=    0.0000018594
 Iter  28:  RMS(Cart)=    0.0000003274 RMS(Int)=    0.0000018116
 Iter  29:  RMS(Cart)=    0.0000003175 RMS(Int)=    0.0000017652
 Iter  30:  RMS(Cart)=    0.0000003080 RMS(Int)=    0.0000017202
 Iter  31:  RMS(Cart)=    0.0000002988 RMS(Int)=    0.0000016765
 Iter  32:  RMS(Cart)=    0.0000002900 RMS(Int)=    0.0000016341
 Iter  33:  RMS(Cart)=    0.0000002815 RMS(Int)=    0.0000015929
 Iter  34:  RMS(Cart)=    0.0000002733 RMS(Int)=    0.0000015528
 Iter  35:  RMS(Cart)=    0.0000002653 RMS(Int)=    0.0000015140
 Iter  36:  RMS(Cart)=    0.0000002576 RMS(Int)=    0.0000014762
 Iter  37:  RMS(Cart)=    0.0000002502 RMS(Int)=    0.0000014396
 Iter  38:  RMS(Cart)=    0.0000002430 RMS(Int)=    0.0000014040
 Iter  39:  RMS(Cart)=    0.0000002360 RMS(Int)=    0.0000013694
 Iter  40:  RMS(Cart)=    0.0000002293 RMS(Int)=    0.0000013358
 Iter  41:  RMS(Cart)=    0.0000002228 RMS(Int)=    0.0000013031
 Iter  42:  RMS(Cart)=    0.0000002164 RMS(Int)=    0.0000012714
 Iter  43:  RMS(Cart)=    0.0000002103 RMS(Int)=    0.0000012405
 Iter  44:  RMS(Cart)=    0.0000002044 RMS(Int)=    0.0000012105
 Iter  45:  RMS(Cart)=    0.0000001986 RMS(Int)=    0.0000011814
 Iter  46:  RMS(Cart)=    0.0000001931 RMS(Int)=    0.0000011531
 Iter  47:  RMS(Cart)=    0.0000001877 RMS(Int)=    0.0000011255
 Iter  48:  RMS(Cart)=    0.0000001824 RMS(Int)=    0.0000010988
 Iter  49:  RMS(Cart)=    0.0000001774 RMS(Int)=    0.0000010727
 Iter  50:  RMS(Cart)=    0.0000001725 RMS(Int)=    0.0000010474
 Iter  51:  RMS(Cart)=    0.0000001677 RMS(Int)=    0.0000010228
 Iter  52:  RMS(Cart)=    0.0000001631 RMS(Int)=    0.0000009989
 Iter  53:  RMS(Cart)=    0.0000001586 RMS(Int)=    0.0000009756
 Iter  54:  RMS(Cart)=    0.0000001543 RMS(Int)=    0.0000009529
 Iter  55:  RMS(Cart)=    0.0000001501 RMS(Int)=    0.0000009309
 Iter  56:  RMS(Cart)=    0.0000001460 RMS(Int)=    0.0000009095
 Iter  57:  RMS(Cart)=    0.0000001421 RMS(Int)=    0.0000008886
 Iter  58:  RMS(Cart)=    0.0000001383 RMS(Int)=    0.0000008683
 Iter  59:  RMS(Cart)=    0.0000001346 RMS(Int)=    0.0000008486
 Iter  60:  RMS(Cart)=    0.0000001310 RMS(Int)=    0.0000008294
 Iter  61:  RMS(Cart)=    0.0000001275 RMS(Int)=    0.0000008107
 Iter  62:  RMS(Cart)=    0.0000001241 RMS(Int)=    0.0000007924
 Iter  63:  RMS(Cart)=    0.0000001208 RMS(Int)=    0.0000007747
 Iter  64:  RMS(Cart)=    0.0000001176 RMS(Int)=    0.0000007575
 Iter  65:  RMS(Cart)=    0.0000001145 RMS(Int)=    0.0000007407
 Iter  66:  RMS(Cart)=    0.0000001115 RMS(Int)=    0.0000007243
 Iter  67:  RMS(Cart)=    0.0000001086 RMS(Int)=    0.0000007084
 Iter  68:  RMS(Cart)=    0.0000001058 RMS(Int)=    0.0000006929
 Iter  69:  RMS(Cart)=    0.0000001030 RMS(Int)=    0.0000006778
 Iter  70:  RMS(Cart)=    0.0000001004 RMS(Int)=    0.0000006631
 Iter  71:  RMS(Cart)=    0.0000000978 RMS(Int)=    0.0000006487
 Iter  72:  RMS(Cart)=    0.0000000953 RMS(Int)=    0.0000006348
 Iter  73:  RMS(Cart)=    0.0000000928 RMS(Int)=    0.0000006212
 Iter  74:  RMS(Cart)=    0.0000000905 RMS(Int)=    0.0000006080
 Iter  75:  RMS(Cart)=    0.0000000882 RMS(Int)=    0.0000005950
 Iter  76:  RMS(Cart)=    0.0000000859 RMS(Int)=    0.0000005825
 Iter  77:  RMS(Cart)=    0.0000000838 RMS(Int)=    0.0000005702
 Iter  78:  RMS(Cart)=    0.0000000817 RMS(Int)=    0.0000005583
 Iter  79:  RMS(Cart)=    0.0000000796 RMS(Int)=    0.0000005466
 Iter  80:  RMS(Cart)=    0.0000000776 RMS(Int)=    0.0000005353
 Iter  81:  RMS(Cart)=    0.0000000757 RMS(Int)=    0.0000005242
 Iter  82:  RMS(Cart)=    0.0000000738 RMS(Int)=    0.0000005134
 Iter  83:  RMS(Cart)=    0.0000000720 RMS(Int)=    0.0000005029
 Iter  84:  RMS(Cart)=    0.0000000703 RMS(Int)=    0.0000004927
 Iter  85:  RMS(Cart)=    0.0000000685 RMS(Int)=    0.0000004827
 Iter  86:  RMS(Cart)=    0.0000000669 RMS(Int)=    0.0000004729
 Iter  87:  RMS(Cart)=    0.0000000652 RMS(Int)=    0.0000004634
 Iter  88:  RMS(Cart)=    0.0000000637 RMS(Int)=    0.0000004542
 Iter  89:  RMS(Cart)=    0.0000000621 RMS(Int)=    0.0000004451
 Iter  90:  RMS(Cart)=    0.0000000606 RMS(Int)=    0.0000004363
 Iter  91:  RMS(Cart)=    0.0000000592 RMS(Int)=    0.0000004277
 Iter  92:  RMS(Cart)=    0.0000000578 RMS(Int)=    0.0000004193
 Iter  93:  RMS(Cart)=    0.0000000564 RMS(Int)=    0.0000004111
 Iter  94:  RMS(Cart)=    0.0000000551 RMS(Int)=    0.0000004031
 Iter  95:  RMS(Cart)=    0.0000000538 RMS(Int)=    0.0000003953
 Iter  96:  RMS(Cart)=    0.0000000525 RMS(Int)=    0.0000003877
 Iter  97:  RMS(Cart)=    0.0000000513 RMS(Int)=    0.0000003803
 Iter  98:  RMS(Cart)=    0.0000000501 RMS(Int)=    0.0000003730
 Iter  99:  RMS(Cart)=    0.0000000489 RMS(Int)=    0.0000003659
 RMS(Cart) too big - taking linear step, building new B-matrix and trying again
Imposing constraints:
 Iter   0:  RMS(Cart)=    0.0000976808 RMS(Int)=    0.0000382273
 Iter   1:  RMS(Cart)=    0.0000497063 RMS(Int)=    0.0000228345
 Iter   2:  RMS(Cart)=    0.0000272834 RMS(Int)=    0.0000148339
 Iter   3:  RMS(Cart)=    0.0000162059 RMS(Int)=    0.0000102444
 Iter   4:  RMS(Cart)=    0.0000102782 RMS(Int)=    0.0000074225
 Iter   5:  RMS(Cart)=    0.0000068295 RMS(Int)=    0.0000056402
 Iter   6:  RMS(Cart)=    0.0000046849 RMS(Int)=    0.0000045198
 Iter   7:  RMS(Cart)=    0.0000032915 RMS(Int)=    0.0000038273
 Iter   8:  RMS(Cart)=    0.0000023631 RMS(Int)=    0.0000034024
 Iter   9:  RMS(Cart)=    0.0000017368 RMS(Int)=    0.0000031363
 Iter  10:  RMS(Cart)=    0.0000013127 RMS(Int)=    0.0000029596
 Iter  11:  RMS(Cart)=    0.0000010260 RMS(Int)=    0.0000028321
 Iter  12:  RMS(Cart)=    0.0000008331 RMS(Int)=    0.0000027312
 Iter  13:  RMS(Cart)=    0.0000007033 RMS(Int)=    0.0000026451
 Iter  14:  RMS(Cart)=    0.0000006154 RMS(Int)=    0.0000025676
 Iter  15:  RMS(Cart)=    0.0000005547 RMS(Int)=    0.0000024955
 Iter  16:  RMS(Cart)=    0.0000005112 RMS(Int)=    0.0000024271
 Iter  17:  RMS(Cart)=    0.0000004787 RMS(Int)=    0.0000023615
 Iter  18:  RMS(Cart)=    0.0000004533 RMS(Int)=    0.0000022984
 Iter  19:  RMS(Cart)=    0.0000004324 RMS(Int)=    0.0000022373
 Iter  20:  RMS(Cart)=    0.0000004147 RMS(Int)=    0.0000021782
 Iter  21:  RMS(Cart)=    0.0000003990 RMS(Int)=    0.0000021209
 Iter  22:  RMS(Cart)=    0.0000003849 RMS(Int)=    0.0000020653
 Iter  23:  RMS(Cart)=    0.0000003719 RMS(Int)=    0.0000020114
 Iter  24:  RMS(Cart)=    0.0000003598 RMS(Int)=    0.0000019592
 Iter  25:  RMS(Cart)=    0.0000003484 RMS(Int)=    0.0000019084
 Iter  26:  RMS(Cart)=    0.0000003376 RMS(Int)=    0.0000018592
 Iter  27:  RMS(Cart)=    0.0000003273 RMS(Int)=    0.0000018114
 Iter  28:  RMS(Cart)=    0.0000003174 RMS(Int)=    0.0000017650
 Iter  29:  RMS(Cart)=    0.0000003079 RMS(Int)=    0.0000017200
 Iter  30:  RMS(Cart)=    0.0000002988 RMS(Int)=    0.0000016763
 Iter  31:  RMS(Cart)=    0.0000002899 RMS(Int)=    0.0000016339
 Iter  32:  RMS(Cart)=    0.0000002814 RMS(Int)=    0.0000015927
 Iter  33:  RMS(Cart)=    0.0000002732 RMS(Int)=    0.0000015527
 Iter  34:  RMS(Cart)=    0.0000002653 RMS(Int)=    0.0000015138
 Iter  35:  RMS(Cart)=    0.0000002576 RMS(Int)=    0.0000014761
 Iter  36:  RMS(Cart)=    0.0000002501 RMS(Int)=    0.0000014395
 Iter  37:  RMS(Cart)=    0.0000002430 RMS(Int)=    0.0000014039
 Iter  38:  RMS(Cart)=    0.0000002360 RMS(Int)=    0.0000013693
 Iter  39:  RMS(Cart)=    0.0000002292 RMS(Int)=    0.0000013357
 Iter  40:  RMS(Cart)=    0.0000002227 RMS(Int)=    0.0000013030
 Iter  41:  RMS(Cart)=    0.0000002164 RMS(Int)=    0.0000012713
 Iter  42:  RMS(Cart)=    0.0000002103 RMS(Int)=    0.0000012404
 Iter  43:  RMS(Cart)=    0.0000002043 RMS(Int)=    0.0000012105
 Iter  44:  RMS(Cart)=    0.0000001986 RMS(Int)=    0.0000011813
 Iter  45:  RMS(Cart)=    0.0000001930 RMS(Int)=    0.0000011530
 Iter  46:  RMS(Cart)=    0.0000001876 RMS(Int)=    0.0000011255
 Iter  47:  RMS(Cart)=    0.0000001824 RMS(Int)=    0.0000010987
 Iter  48:  RMS(Cart)=    0.0000001774 RMS(Int)=    0.0000010727
 Iter  49:  RMS(Cart)=    0.0000001725 RMS(Int)=    0.0000010474
 Iter  50:  RMS(Cart)=    0.0000001677 RMS(Int)=    0.0000010228
 Iter  51:  RMS(Cart)=    0.0000001631 RMS(Int)=    0.0000009988
CONVERGED
Small eigenvalue found = 6.829e-03
Small eigenvalue found = 1.318e-02
Small eigenvalue found = 1.881e-02
The first mode is                       ....   91
The number of degrees of freedom        ....   81
Storing new coordinates                 .... done

    -----------------------------------------------------------------
                    Redundant Internal Coordinates


    -----------------------------------------------------------------
         Definition                    Initial Value    Approx d2E/dq
    -----------------------------------------------------------------
      1. B(C   1,C   0)                  1.5333         0.369027   
      2. B(C   2,C   1)                  1.5471         0.350825   
      3. B(C   3,C   2)                  1.5492         0.348147   
      4. B(O   4,C   0)                  1.4668         0.422031   
      5. B(O   4,C   3)                  1.4789         0.403699   
      6. B(H   5,C   0)                  1.0919         0.357632   
      7. B(H   6,C   1)                  1.0958         0.352561   
      8. B(H   7,C   1)                  1.0951         0.353431   
      9. B(H   8,C   2)                  1.0945         0.354166   
     10. B(H   9,C   2)                  1.0966         0.351438   
     11. B(H  10,C   3)                  1.0954         0.353010   
     12. B(H  11,C   3)                  1.0939         0.354989   
     13. B(H  13,C  12)                  1.0966         0.351534   
     14. B(H  14,C  12)                  1.0974         0.350382   
     15. B(O  15,C   0)                  1.5525         0.307993   
     16. B(O  15,C  12)                  1.5539         0.306419   
     17. B(C  16,C  12)                  1.5534         0.342781   
     18. B(C  17,C  16)                  1.5329         0.369660   
     19. B(C  18,C  17)                  1.5472         0.350635   
     20. B(C  19,C  18)                  1.5495         0.347753   
     21. B(O  20,C  16)                  1.4670         0.421779   
     22. B(O  20,C  19)                  1.4781         0.404946   
     23. B(H  21,C  16)                  1.0908         0.359094   
     24. B(H  22,C  17)                  1.0966         0.351470   
     25. B(O  23,C  17)                  1.5537         0.306658   
     26. B(H  24,C  18)                  1.0943         0.354415   
     27. B(H  25,C  18)                  1.0965         0.351624   
     28. B(H  26,C  19)                  1.0954         0.352984   
     29. B(H  27,C  19)                  1.0926         0.356675   
     30. B(H  28,O  23)                  1.0954         0.316202   
     31. A(O   4,C   0,H   5)          107.0213         0.328541   
     32. A(C   1,C   0,O  15)          111.3021         0.348740   
     33. A(C   1,C   0,O   4)          104.2487         0.367935   
     34. A(O   4,C   0,O  15)          110.4734         0.354548   
     35. A(C   1,C   0,H   5)          114.4378         0.323302   
     36. A(H   5,C   0,O  15)          109.1576         0.312058   
     37. A(C   0,C   1,C   2)          101.6796         0.358729   
     38. A(C   2,C   1,H   7)          112.8319         0.320016   
     39. A(C   2,C   1,H   6)          110.6708         0.319888   
     40. A(C   0,C   1,H   6)          110.0677         0.322546   
     41. A(H   6,C   1,H   7)          108.3681         0.289027   
     42. A(C   0,C   1,H   7)          113.1243         0.322677   
     43. A(C   1,C   2,H   8)          112.8318         0.320125   
     44. A(C   1,C   2,C   3)          103.1268         0.355196   
     45. A(C   1,C   2,H   9)          110.0800         0.319721   
     46. A(C   3,C   2,H   9)          110.6152         0.319321   
     47. A(C   3,C   2,H   8)          112.4038         0.319725   
     48. A(H   8,C   2,H   9)          107.7728         0.288977   
     49. A(O   4,C   3,H  10)          109.1298         0.325449   
     50. A(C   2,C   3,H  10)          112.5253         0.319554   
     51. A(C   2,C   3,O   4)          106.5276         0.361529   
     52. A(O   4,C   3,H  11)          107.1237         0.325748   
     53. A(H  10,C   3,H  11)          108.8728         0.289284   
     54. A(C   2,C   3,H  11)          112.4566         0.319846   
     55. A(C   0,O   4,C   3)          108.3146         0.371320   
     56. A(H  14,C  12,C  16)          107.7514         0.318357   
     57. A(H  13,C  12,H  14)          108.2672         0.288503   
     58. A(H  13,C  12,O  15)          109.2492         0.310933   
     59. A(H  14,C  12,O  15)          110.4000         0.310769   
     60. A(O  15,C  12,C  16)          112.7069         0.344143   
     61. A(H  13,C  12,C  16)          108.3467         0.318527   
     62. A(C   0,O  15,C  12)          115.1636         0.335988   
     63. A(C  12,C  16,C  17)          111.2709         0.357420   
     64. A(C  12,C  16,O  20)          110.4144         0.363279   
     65. A(C  17,C  16,O  20)          104.2120         0.368006   
     66. A(C  12,C  16,H  21)          109.1500         0.319635   
     67. A(C  17,C  16,H  21)          114.5527         0.323610   
     68. A(O  20,C  16,H  21)          107.0358         0.328730   
     69. A(C  16,C  17,C  18)          101.7272         0.358800   
     70. A(C  16,C  17,H  22)          110.0267         0.322473   
     71. A(C  18,C  17,H  22)          110.6927         0.319698   
     72. A(C  16,C  17,O  23)          113.1323         0.348586   
     73. A(C  18,C  17,O  23)          112.8755         0.345500   
     74. A(H  22,C  17,O  23)          108.2948         0.310964   
     75. A(C  17,C  18,C  19)          103.0931         0.355095   
     76. A(C  17,C  18,H  24)          112.7998         0.320134   
     77. A(C  19,C  18,H  24)          112.4289         0.319702   
     78. A(C  17,C  18,H  25)          110.0155         0.319720   
     79. A(C  19,C  18,H  25)          110.7457         0.319290   
     80. A(H  24,C  18,H  25)          107.7503         0.289032   
     81. A(C  18,C  19,O  20)          106.5165         0.361649   
     82. A(C  18,C  19,H  26)          112.4455         0.319491   
     83. A(O  20,C  19,H  26)          109.1398         0.325610   
     84. A(C  18,C  19,H  27)          112.4225         0.320034   
     85. A(O  20,C  19,H  27)          107.2293         0.326167   
     86. A(H  26,C  19,H  27)          108.8921         0.289495   
     87. A(C  16,O  20,C  19)          108.3814         0.371479   
     88. A(C  17,O  23,H  28)          109.5400         0.303189   
     89. D(H   7,C   1,C   0,H   5)     82.1518         0.010890   
     90. D(C   2,C   1,C   0,O  15)     79.0869         0.010890   
     91. D(H   7,C   1,C   0,O  15)    -42.1868         0.010890   
     92. D(H   6,C   1,C   0,O   4)     77.3259         0.010890   
     93. D(H   6,C   1,C   0,O  15)   -163.5727         0.010890   
     94. D(H   6,C   1,C   0,H   5)    -39.2341         0.010890   
     95. D(H   7,C   1,C   0,O   4)   -161.2882         0.010890   
     96. D(C   2,C   1,C   0,O   4)    -40.0145         0.010890 C 
     97. D(C   2,C   1,C   0,H   5)   -156.5745         0.010890   
     98. D(H   9,C   2,C   1,H   6)    160.0776         0.009912   
     99. D(H   8,C   2,C   1,C   0)    156.5478         0.009912   
    100. D(H   8,C   2,C   1,H   6)     39.6446         0.009912   
    101. D(C   3,C   2,C   1,C   0)     35.0270         0.009912 C 
    102. D(H   8,C   2,C   1,H   7)    -81.9752         0.009912   
    103. D(H   9,C   2,C   1,C   0)    -83.0192         0.009912   
    104. D(C   3,C   2,C   1,H   6)    -81.8763         0.009912   
    105. D(H   9,C   2,C   1,H   7)     38.4578         0.009912   
    106. D(C   3,C   2,C   1,H   7)    156.5039         0.009912   
    107. D(H  11,C   3,C   2,H   9)   -143.4628         0.009774   
    108. D(O   4,C   3,C   2,H   8)   -140.0066         0.009774   
    109. D(O   4,C   3,C   2,H   9)     99.4739         0.009774   
    110. D(H  10,C   3,C   2,C   1)   -137.7432         0.009774   
    111. D(H  10,C   3,C   2,H   8)    100.4468         0.009774   
    112. D(H  10,C   3,C   2,H   9)    -20.0727         0.009774   
    113. D(H  11,C   3,C   2,C   1)     98.8667         0.009774   
    114. D(O   4,C   3,C   2,C   1)    -18.1967         0.009774 C 
    115. D(H  11,C   3,C   2,H   8)    -22.9433         0.009774   
    116. D(C   3,O   4,C   0,C   1)     29.5918         0.014035 C 
    117. D(C   3,O   4,C   0,H   5)    151.2016         0.014035   
    118. D(C   3,O   4,C   0,O  15)    -90.0713         0.014035   
    119. D(C   0,O   4,C   3,C   2)     -6.8732         0.012866 C 
    120. D(C   0,O   4,C   3,H  10)    114.8547         0.012866   
    121. D(C   0,O   4,C   3,H  11)   -127.4272         0.012866   
    122. D(C   0,O  15,C  12,C  16)     45.0000         0.007724 C 
    123. D(C  12,O  15,C   0,O   4)    150.0000         0.007793 C 
    124. D(C  12,O  15,C   0,H   5)    -92.5812         0.007793   
    125. D(C   0,O  15,C  12,H  14)    -75.5467         0.007724   
    126. D(C   0,O  15,C  12,H  13)    165.5002         0.007724   
    127. D(C  12,O  15,C   0,C   1)     34.6864         0.007793   
    128. D(C  17,C  16,C  12,H  13)    -56.2530         0.009500   
    129. D(H  21,C  16,C  12,H  14)     59.4284         0.009500   
    130. D(C  17,C  16,C  12,O  15)     64.7635         0.009500   
    131. D(O  20,C  16,C  12,H  13)     58.9613         0.009500   
    132. D(O  20,C  16,C  12,H  14)    -57.9689         0.009500   
    133. D(O  20,C  16,C  12,O  15)    179.9778         0.009500 C 
    134. D(C  17,C  16,C  12,H  14)   -173.1833         0.009500   
    135. D(H  21,C  16,C  12,H  13)    176.3586         0.009500   
    136. D(H  21,C  16,C  12,O  15)    -62.6249         0.009500   
    137. D(C  18,C  17,C  16,C  12)     79.0344         0.010925   
    138. D(C  18,C  17,C  16,O  20)    -39.9598         0.010925 C 
    139. D(C  18,C  17,C  16,H  21)   -156.5728         0.010925   
    140. D(H  22,C  17,C  16,C  12)   -163.5928         0.010925   
    141. D(H  22,C  17,C  16,O  20)     77.4130         0.010925   
    142. D(H  22,C  17,C  16,H  21)    -39.2000         0.010925   
    143. D(O  23,C  17,C  16,C  12)    -42.3253         0.010925   
    144. D(O  23,C  17,C  16,O  20)   -161.3195         0.010925   
    145. D(O  23,C  17,C  16,H  21)     82.0675         0.010925   
    146. D(H  24,C  18,C  17,O  23)    -81.9173         0.009903   
    147. D(C  19,C  18,C  17,H  22)    -81.8585         0.009903   
    148. D(C  19,C  18,C  17,O  23)    156.5699         0.009903   
    149. D(H  24,C  18,C  17,C  16)    156.5448         0.009903   
    150. D(C  19,C  18,C  17,C  16)     35.0320         0.009903 C 
    151. D(H  24,C  18,C  17,H  22)     39.6543         0.009903   
    152. D(H  25,C  18,C  17,C  16)    -83.1177         0.009903   
    153. D(H  25,C  18,C  17,H  22)    159.9918         0.009903   
    154. D(H  25,C  18,C  17,O  23)     38.4203         0.009903   
    155. D(H  27,C  19,C  18,H  25)   -143.4264         0.009754   
    156. D(O  20,C  19,C  18,H  24)   -139.9931         0.009754   
    157. D(O  20,C  19,C  18,H  25)     99.4077         0.009754   
    158. D(H  26,C  19,C  18,C  17)   -137.7353         0.009754   
    159. D(H  26,C  19,C  18,H  24)    100.5011         0.009754   
    160. D(H  26,C  19,C  18,H  25)    -20.0981         0.009754   
    161. D(H  27,C  19,C  18,C  17)     98.9364         0.009754   
    162. D(O  20,C  19,C  18,C  17)    -18.2295         0.009754 C 
    163. D(H  27,C  19,C  18,H  24)    -22.8272         0.009754   
    164. D(C  19,O  20,C  16,C  12)    -90.0620         0.014019   
    165. D(C  19,O  20,C  16,C  17)     29.5135         0.014019 C 
    166. D(C  19,O  20,C  16,H  21)    151.2440         0.014019   
    167. D(C  16,O  20,C  19,C  18)     -6.8010         0.012943 C 
    168. D(C  16,O  20,C  19,H  26)    114.8303         0.012943   
    169. D(C  16,O  20,C  19,H  27)   -127.3648         0.012943   
    170. D(H  28,O  23,C  17,C  16)     57.7296         0.007734   
    171. D(H  28,O  23,C  17,C  18)    -57.1132         0.007734   
    172. D(H  28,O  23,C  17,H  22)    179.9695         0.007734   
    -----------------------------------------------------------------

Number of atoms                         .... 29
Number of degrees of freedom            .... 172

         *************************************************************
         *                GEOMETRY OPTIMIZATION CYCLE   1            *
         *************************************************************
---------------------------------
CARTESIAN COORDINATES (ANGSTROEM)
---------------------------------
  C    -21.047665   26.222034   46.250969
  C    -20.360803   27.558158   45.944172
  C    -20.329116   28.222077   47.341222
  C    -20.110095   27.022039   48.296168
  O    -20.472802   25.807045   47.535031
  H    -20.832437   25.428131   45.532929
  H    -19.343722   27.382326   45.576316
  H    -20.897774   28.157135   45.201132
  H    -19.543239   28.978183   47.434396
  H    -21.289218   28.709928   47.548106
  H    -20.733243   27.081886   49.195075
  H    -19.064126   26.913167   48.597321
  C    -23.209665   27.458929   45.430812
  H    -24.297676   27.325026   45.403790
  H    -22.996582   28.469877   45.800907
  O    -22.585704   26.393845   46.374743
  C    -22.668940   27.362776   43.977720
  C    -23.072262   26.037826   43.320828
  C    -24.540276   26.319067   42.921060
  C    -24.518096   27.820054   42.537013
  O    -23.289900   28.387868   43.131798
  H    -21.595910   27.558615   43.981537
  H    -22.456440   25.856699   42.431731
  O    -22.928305   24.816829   44.270837
  H    -24.885517   25.683102   42.100134
  H    -25.202164   26.147202   43.778174
  H    -25.387943   28.363207   42.922142
  H    -24.455249   27.973014   41.456999
  H    -23.536129   24.976953   45.167934

----------------------------
CARTESIAN COORDINATES (A.U.)
----------------------------
  NO LB      ZA    FRAG     MASS         X           Y           Z
   0 C     6.0000    0    12.011  -39.774322   49.552463   87.401665
   1 C     6.0000    0    12.011  -38.476342   52.077372   86.821903
   2 C     6.0000    0    12.011  -38.416463   53.331997   89.461945
   3 C     6.0000    0    12.011  -38.002572   51.064254   91.266530
   4 O     8.0000    0    15.999  -38.687988   48.768247   89.828190
   5 H     1.0000    0     1.008  -39.367602   48.052205   86.044767
   6 H     1.0000    0     1.008  -36.554337   51.745097   86.126756
   7 H     1.0000    0     1.008  -39.491070   53.209274   85.417761
   8 H     1.0000    0     1.008  -36.931370   54.760831   89.638019
   9 H     1.0000    0     1.008  -40.230791   54.253901   89.852898
  10 H     1.0000    0     1.008  -39.180151   51.177348   92.965220
  11 H     1.0000    0     1.008  -36.025977   50.858515   91.835628
  12 C     6.0000    0    12.011  -43.859911   51.889857   85.851793
  13 H     1.0000    0     1.008  -45.915954   51.636816   85.800729
  14 H     1.0000    0     1.008  -43.457241   53.800271   86.551171
  15 O     8.0000    0    15.999  -42.680795   49.877139   87.635564
  16 C     6.0000    0    12.011  -42.838089   51.708152   83.105847
  17 C     6.0000    0    12.011  -43.600257   49.204361   81.864501
  18 C     6.0000    0    12.011  -46.374402   49.735829   81.109050
  19 C     6.0000    0    12.011  -46.332486   52.572283   80.383305
  20 O     8.0000    0    15.999  -44.011532   53.645297   81.507287
  21 H     1.0000    0     1.008  -40.810356   52.078234   83.113059
  22 H     1.0000    0     1.008  -42.436522   48.862079   80.184350
  23 O     8.0000    0    15.999  -43.328217   46.897010   83.659758
  24 H     1.0000    0     1.008  -47.026811   48.534030   79.557724
  25 H     1.0000    0     1.008  -47.625188   49.411051   82.728760
  26 H     1.0000    0     1.008  -47.976260   53.598693   81.111093
  27 H     1.0000    0     1.008  -46.213723   52.861336   78.342374
  28 H     1.0000    0     1.008  -44.476839   47.199601   85.355026

--------------------------------
INTERNAL COORDINATES (ANGSTROEM)
--------------------------------
 C      0   0   0     0.000000000000     0.00000000     0.00000000
 C      1   0   0     1.533334275362     0.00000000     0.00000000
 C      2   1   0     1.547103422529   101.67907390     0.00000000
 C      3   2   1     1.549188819996   103.12737509    35.02687180
 O      1   2   3     1.466801281701   104.24948604   319.98542309
 H      1   2   3     1.091872245274   114.43876658   203.42640133
 H      2   1   3     1.095759553917   110.06782188   117.34000099
 H      2   1   3     1.095088580892   113.12442239   238.72597460
 H      3   2   1     1.094523183857   112.83161078   156.54780790
 H      3   2   1     1.096628013503   110.07982737   276.98070077
 H      4   3   2     1.095413164062   112.52534669   222.25678475
 H      4   3   2     1.093891219455   112.45670684    98.86663270
 C      8   2   1     2.425994229177   104.21889074    27.16777129
 H     13   8   2     1.096553236282   168.07050387   168.12602921
 H     13   8   2     1.097447037446    65.28804603   108.72302671
 O      1   2   3     1.552547583812   111.30349807    79.08752829
 C     13   8   2     1.553417522754    66.24684242   233.40157276
 C     17  13   8     1.532867574189   111.26979227   135.15368694
 C     18  17  13     1.547250787688   101.72768584    79.03368882
 C     19  18  17     1.549497015163   103.09257638    35.03209761
 O     17  13   8     1.466963530562   110.41471787   250.36650581
 H     17  13   8     1.090761660492   109.15097529     7.76615543
 H     18  17  13     1.096602936345   110.02656266   196.40689395
 O     18  17  13     1.553730028029   113.13213277   317.67433324
 H     19  18  17     1.094331759568   112.80001502   156.54481611
 H     19  18  17     1.096483926011   110.01562175   276.88249195
 H     20  19  18     1.095433247624   112.44547637   222.26467797
 H     20  19  18     1.092601482701   112.42245654    98.93643812
 H     24  18  17     1.095387146173   109.54000848    57.72977774

---------------------------
INTERNAL COORDINATES (A.U.)
---------------------------
 C      0   0   0     0.000000000000     0.00000000     0.00000000
 C      1   0   0     2.897581852189     0.00000000     0.00000000
 C      2   1   0     2.923601769431   101.67907390     0.00000000
 C      3   2   1     2.927542599525   103.12737509    35.02687180
 O      1   2   3     2.771852715300   104.24948604   319.98542309
 H      1   2   3     2.063339516798   114.43876658   203.42640133
 H      2   1   3     2.070685465531   110.06782188   117.34000099
 H      2   1   3     2.069417510270   113.12442239   238.72597460
 H      3   2   1     2.068349064717   112.83161078   156.54780790
 H      3   2   1     2.072326616307   110.07982737   276.98070077
 H      4   3   2     2.070030883569   112.52534669   222.25678475
 H      4   3   2     2.067154825070   112.45670684    98.86663270
 C      8   2   1     4.584464695618   104.21889074    27.16777129
 H     13   8   2     2.072185307838   168.07050387   168.12602921
 H     13   8   2     2.073874347257    65.28804603   108.72302671
 O      1   2   3     2.933889743286   111.30349807    79.08752829
 C     13   8   2     2.935533689640    66.24684242   233.40157276
 C     17  13   8     2.896699914785   111.26979227   135.15368694
 C     18  17  13     2.923880249224   101.72768584    79.03368882
 C     19  18  17     2.928125003987   103.09257638    35.03209761
 O     17  13   8     2.772159321213   110.41471787   250.36650581
 H     17  13   8     2.061240815712   109.15097529     7.76615543
 H     18  17  13     2.072279227346   110.02656266   196.40689395
 O     18  17  13     2.936124239025   113.13213277   317.67433324
 H     19  18  17     2.067987325236   112.80001502   156.54481611
 H     19  18  17     2.072054330407   110.01562175   276.88249195
 H     20  19  18     2.070068836001   112.44547637   222.26467797
 H     20  19  18     2.064717575821   112.42245654    98.93643812
 H     24  18  17     2.069981716884   109.54000848    57.72977774

---------------------
BASIS SET INFORMATION
---------------------
There are 3 groups of distinct atoms

 Group   1 Type C   : 10s4p contracted to 3s2p pattern {631/31}
 Group   2 Type O   : 10s4p contracted to 3s2p pattern {631/31}
 Group   3 Type H   : 4s contracted to 2s pattern {31}

Atom   0C    basis set group =>   1
Atom   1C    basis set group =>   1
Atom   2C    basis set group =>   1
Atom   3C    basis set group =>   1
Atom   4O    basis set group =>   2
Atom   5H    basis set group =>   3
Atom   6H    basis set group =>   3
Atom   7H    basis set group =>   3
Atom   8H    basis set group =>   3
Atom   9H    basis set group =>   3
Atom  10H    basis set group =>   3
Atom  11H    basis set group =>   3
Atom  12C    basis set group =>   1
Atom  13H    basis set group =>   3
Atom  14H    basis set group =>   3
Atom  15O    basis set group =>   2
Atom  16C    basis set group =>   1
Atom  17C    basis set group =>   1
Atom  18C    basis set group =>   1
Atom  19C    basis set group =>   1
Atom  20O    basis set group =>   2
Atom  21H    basis set group =>   3
Atom  22H    basis set group =>   3
Atom  23O    basis set group =>   2
Atom  24H    basis set group =>   3
Atom  25H    basis set group =>   3
Atom  26H    basis set group =>   3
Atom  27H    basis set group =>   3
Atom  28H    basis set group =>   3
------------------------------------------------------------------------------
                           ORCA GTO INTEGRAL CALCULATION
------------------------------------------------------------------------------

                         BASIS SET STATISTICS AND STARTUP INFO

 # of primitive gaussian shells          ...  246
 # of primitive gaussian functions       ...  350
 # of contracted shells                  ...   97
 # of contracted basis functions         ...  149
 Highest angular momentum                ...    1
 Maximum contraction depth               ...    6
 Integral package used                   ... LIBINT
 Integral threshhold            Thresh   ...  2.500e-11
 Primitive cut-off              TCut     ...  2.500e-12


------------------------------ INTEGRAL EVALUATION ----------------------------


 * One electron integrals 
 Pre-screening matrix                    ... done
 Shell pair data                         ... done (   0.003 sec)

-------------------------------------------------------------------------------
                                 ORCA SCF
-------------------------------------------------------------------------------

------------
SCF SETTINGS
------------
Hamiltonian:
 Density Functional     Method          .... DFT(GTOs)
 Exchange Functional    Exchange        .... B88
   X-Alpha parameter    XAlpha          ....  0.666667
   Becke's b parameter  XBeta           ....  0.004200
 Correlation Functional Correlation     .... LYP
 LDA part of GGA corr.  LDAOpt          .... VWN-5
 Gradients option       PostSCFGGA      .... off
 Hybrid DFT is turned on
   Fraction HF Exchange ScalHFX         ....  0.200000
   Scaling of DF-GGA-X  ScalDFX         ....  0.720000
   Scaling of DF-GGA-C  ScalDFC         ....  0.810000
   Scaling of DF-LDA-C  ScalLDAC        ....  1.000000
   Perturbative correction              ....  0.000000
   Density functional embedding theory  .... OFF
   NL short-range parameter             ....  4.800000


General Settings:
 Integral files         IntName         .... project_8051/ensemble_150_45
 Hartree-Fock type      HFTyp           .... RHF
 Total Charge           Charge          ....    0
 Multiplicity           Mult            ....    1
 Number of Electrons    NEL             ....  102
 Basis Dimension        Dim             ....  149
 Nuclear Repulsion      ENuc            ....    891.2134455556 Eh

Convergence Acceleration:
 DIIS                   CNVDIIS         .... on
   Start iteration      DIISMaxIt       ....    12
   Startup error        DIISStart       ....  0.200000
   # of expansion vecs  DIISMaxEq       ....     5
   Bias factor          DIISBfac        ....   1.050
   Max. coefficient     DIISMaxC        ....  10.000
 Newton-Raphson         CNVNR           .... off
 SOSCF                  CNVSOSCF        .... on
   Start iteration      SOSCFMaxIt      ....   150
   Startup grad/error   SOSCFStart      ....  0.003300
 Level Shifting         CNVShift        .... on
   Level shift para.    LevelShift      ....    0.2500
   Turn off err/grad.   ShiftErr        ....    0.0010
 Zerner damping         CNVZerner       .... off
 Static damping         CNVDamp         .... on
   Fraction old density DampFac         ....    0.7000
   Max. Damping (<1)    DampMax         ....    0.9800
   Min. Damping (>=0)   DampMin         ....    0.0000
   Turn off err/grad.   DampErr         ....    0.1000
 Fernandez-Rico         CNVRico         .... off

SCF Procedure:
 Maximum # iterations   MaxIter         ....   125
 SCF integral mode      SCFMode         .... Direct
   Integral package                     .... LIBINT
 Reset frequency        DirectResetFreq ....    20
 Integral Threshold     Thresh          ....  2.500e-11 Eh
 Primitive CutOff       TCut            ....  2.500e-12 Eh

Convergence Tolerance:
 Convergence Check Mode ConvCheckMode   .... Total+1el-Energy
 Convergence forced     ConvForced      .... 0
 Energy Change          TolE            ....  1.000e-08 Eh
 1-El. energy change                    ....  1.000e-05 Eh
 Orbital Gradient       TolG            ....  1.000e-05
 Orbital Rotation angle TolX            ....  1.000e-05
 DIIS Error             TolErr          ....  5.000e-07


Diagonalization of the overlap matrix:
Smallest eigenvalue                        ... 3.846e-03
Time for diagonalization                   ...    0.006 sec
Threshold for overlap eigenvalues          ... 1.000e-08
Number of eigenvalues below threshold      ... 0
Time for construction of square roots      ...    0.026 sec
Total time needed                          ...    0.032 sec

-------------------
DFT GRID GENERATION
-------------------

General Integration Accuracy     IntAcc      ...  4.340
Radial Grid Type                 RadialGrid  ... Gauss-Chebyshev
Angular Grid (max. acc.)         AngularGrid ... Lebedev-110
Angular grid pruning method      GridPruning ... 3 (G Style)
Weight generation scheme         WeightScheme... Becke
Basis function cutoff            BFCut       ...    1.0000e-11
Integration weight cutoff        WCut        ...    1.0000e-14
Grids for H and He will be reduced by one unit

# of grid points (after initial pruning)     ...  34472 (   0.0 sec)
# of grid points (after weights+screening)   ...  30864 (   0.5 sec)
nearest neighbour list constructed           ...    0.0 sec
Grid point re-assignment to atoms done       ...    0.0 sec
Grid point division into batches done        ...    0.0 sec
Reduced shell lists constructed in    0.5 sec

Total number of grid points                  ...    30864
Total number of batches                      ...      497
Average number of points per batch           ...       62
Average number of grid points per atom       ...     1064
Average number of shells per batch           ...    61.01 (62.90%)
Average number of basis functions per batch  ...    98.96 (66.42%)
Average number of large shells per batch     ...    43.83 (71.84%)
Average number of large basis fcns per batch ...    72.45 (73.21%)
Maximum spatial batch extension              ...  20.95, 21.73, 19.36 au
Average spatial batch extension              ...   3.32,  3.47,  3.28 au

Time for grid setup =    1.046 sec

------------------------------
INITIAL GUESS: MODEL POTENTIAL
------------------------------
Loading Hartree-Fock densities                     ... done
Calculating cut-offs                               ... done
Setting up the integral package                    ... done
Initializing the effective Hamiltonian             ... done
Starting the Coulomb interaction                   ... done (   0.5 sec)
Reading the grid                                   ... done
Mapping shells                                     ... done
Starting the XC term evaluation                    ... done (   0.5 sec)
  promolecular density results
     # of electrons  =    102.003867044
     EX              =    -83.688938740
     EC              =     -3.467922373
     EX+EC           =    -87.156861113
Transforming the Hamiltonian                       ... done (   0.0 sec)
Diagonalizing the Hamiltonian                      ... done (   0.0 sec)
Back transforming the eigenvectors                 ... done (   0.0 sec)
Now organizing SCF variables                       ... done
                      ------------------
                      INITIAL GUESS DONE (   2.1 sec)
                      ------------------
--------------
SCF ITERATIONS
--------------
ITER       Energy         Delta-E        Max-DP      RMS-DP      [F,P]     Damp
               ***  Starting incremental Fock matrix formation  ***
  0   -652.5345248830   0.000000000000 0.07537341  0.00292182  0.2360456 0.7000
  1   -652.6667437060  -0.132218822952 0.04126908  0.00200243  0.0925261 0.7000
                               ***Turning on DIIS***
  2   -652.7172235189  -0.050479812901 0.05442665  0.00326519  0.0315801 0.0000
  3   -652.8001213614  -0.082897842473 0.03065662  0.00129866  0.0518465 0.0000
  4   -652.8165572116  -0.016435850196 0.00795896  0.00041132  0.0083809 0.0000
  5   -652.8174418564  -0.000884644815 0.00262542  0.00012819  0.0040277 0.0000
                      *** Initiating the SOSCF procedure ***
                           *** Shutting down DIIS ***
                      *** Re-Reading the Fockian *** 
                      *** Removing any level shift *** 
ITER      Energy       Delta-E        Grad      Rot      Max-DP    RMS-DP
  6   -652.81751230  -0.0000704419  0.000153  0.000153  0.001000  0.000053
               *** Restarting incremental Fock matrix formation ***
  7   -652.81751522  -0.0000029177  0.000102  0.000157  0.000814  0.000027
  8   -652.81751439   0.0000008263  0.000152  0.000100  0.000423  0.000015
  9   -652.81751622  -0.0000018260  0.000019  0.000029  0.000124  0.000005
 10   -652.81751616   0.0000000520  0.000030  0.000020  0.000077  0.000003
 11   -652.81751625  -0.0000000850  0.000003  0.000003  0.000023  0.000001
 12   -652.81751625  -0.0000000000  0.000005  0.000002  0.000015  0.000000
                  ***Gradient check signals convergence***
              ***Rediagonalizing the Fockian in SOSCF/NRSCF***

               *****************************************************
               *                     SUCCESS                       *
               *           SCF CONVERGED AFTER  13 CYCLES          *
               *****************************************************

Setting up the final grid:

General Integration Accuracy     IntAcc      ...  4.670
Radial Grid Type                 RadialGrid  ... Gauss-Chebyshev
Angular Grid (max. acc.)         AngularGrid ... Lebedev-302
Angular grid pruning method      GridPruning ... 3 (G Style)
Weight generation scheme         WeightScheme... Becke
Basis function cutoff            BFCut       ...    1.0000e-11
Integration weight cutoff        WCut        ...    1.0000e-14
Grids for H and He will be reduced by one unit

# of grid points (after initial pruning)     ... 135060 (   0.1 sec)
# of grid points (after weights+screening)   ... 118216 (   1.5 sec)
nearest neighbour list constructed           ...    0.0 sec
Grid point re-assignment to atoms done       ...    0.0 sec
Grid point division into batches done        ...    0.5 sec
Reduced shell lists constructed in    1.8 sec

Total number of grid points                  ...   118216
Total number of batches                      ...     1860
Average number of points per batch           ...       63
Average number of grid points per atom       ...     4076
Average number of shells per batch           ...    55.83 (57.56%)
Average number of basis functions per batch  ...    90.82 (60.95%)
Average number of large shells per batch     ...    39.24 (70.28%)
Average number of large basis fcns per batch ...    65.02 (71.59%)
Maximum spatial batch extension              ...  21.08, 18.63, 18.05 au
Average spatial batch extension              ...   2.21,  2.26,  2.21 au

Final grid set up in    3.4 sec
Final integration                            ... done (   1.9 sec)
Change in XC energy                          ...     0.000517818
Integrated number of electrons               ...   101.999871436
Previous integrated no of electrons          ...   102.007479176

----------------
TOTAL SCF ENERGY
----------------

Total Energy       :         -652.81699843 Eh          -17764.05363 eV

Components:
Nuclear Repulsion  :          891.21344556 Eh           24251.15076 eV
Electronic Energy  :        -1544.03044399 Eh          -42015.20439 eV
One Electron Energy:        -2659.93726282 Eh          -72380.57268 eV
Two Electron Energy:         1115.90681883 Eh           30365.36829 eV

Virial components:
Potential Energy   :        -1301.86156104 Eh          -35425.45407 eV
Kinetic Energy     :          649.04456261 Eh           17661.40044 eV
Virial Ratio       :            2.00581229


DFT components:
N(Alpha)           :       50.999935717889 electrons
N(Beta)            :       50.999935717889 electrons
N(Total)           :      101.999871435778 electrons
E(X)               :      -67.608315704784 Eh       
E(C)               :       -4.076792723567 Eh       
E(XC)              :      -71.685108428351 Eh       
DFET-embed. en.    :        0.000000000000 Eh       

---------------
SCF CONVERGENCE
---------------

  Last Energy change         ...   -9.5611e-10  Tolerance :   1.0000e-08
  Last MAX-Density change    ...    2.9646e-06  Tolerance :   1.0000e-07
  Last RMS-Density change    ...    1.1455e-07  Tolerance :   5.0000e-09
  Last Orbital Gradient      ...    3.2278e-07  Tolerance :   1.0000e-05
  Last Orbital Rotation      ...    6.6694e-07  Tolerance :   1.0000e-05

             **** THE GBW FILE WAS UPDATED (project_8051/ensemble_150_45.gbw) ****
             **** DENSITY FILE WAS UPDATED (project_8051/ensemble_150_45.scfp) ****
             **** ENERGY FILE WAS UPDATED (project_8051/ensemble_150_45.en.tmp) ****
             **** THE GBW FILE WAS UPDATED (project_8051/ensemble_150_45.gbw) ****
             **** DENSITY FILE WAS UPDATED (project_8051/ensemble_150_45.scfp) ****
----------------
ORBITAL ENERGIES
----------------

  NO   OCC          E(Eh)            E(eV) 
   0   2.0000     -19.152050      -521.1538 
   1   2.0000     -19.149396      -521.0815 
   2   2.0000     -19.148930      -521.0689 
   3   2.0000     -19.137387      -520.7548 
   4   2.0000     -10.280845      -279.7560 
   5   2.0000     -10.246333      -278.8169 
   6   2.0000     -10.241485      -278.6850 
   7   2.0000     -10.240862      -278.6680 
   8   2.0000     -10.237569      -278.5784 
   9   2.0000     -10.226329      -278.2726 
  10   2.0000     -10.196745      -277.4675 
  11   2.0000     -10.191734      -277.3312 
  12   2.0000     -10.190810      -277.3060 
  13   2.0000      -1.037099       -28.2209 
  14   2.0000      -1.032754       -28.1027 
  15   2.0000      -0.975044       -26.5323 
  16   2.0000      -0.954984       -25.9864 
  17   2.0000      -0.790782       -21.5183 
  18   2.0000      -0.785182       -21.3659 
  19   2.0000      -0.768776       -20.9195 
  20   2.0000      -0.735301       -20.0085 
  21   2.0000      -0.682873       -18.5819 
  22   2.0000      -0.610792       -16.6205 
  23   2.0000      -0.602270       -16.3886 
  24   2.0000      -0.591433       -16.0937 
  25   2.0000      -0.574589       -15.6354 
  26   2.0000      -0.530312       -14.4305 
  27   2.0000      -0.505818       -13.7640 
  28   2.0000      -0.493089       -13.4176 
  29   2.0000      -0.482724       -13.1356 
  30   2.0000      -0.465445       -12.6654 
  31   2.0000      -0.453545       -12.3416 
  32   2.0000      -0.442785       -12.0488 
  33   2.0000      -0.433719       -11.8021 
  34   2.0000      -0.422031       -11.4841 
  35   2.0000      -0.415194       -11.2980 
  36   2.0000      -0.406974       -11.0743 
  37   2.0000      -0.401662       -10.9298 
  38   2.0000      -0.382455       -10.4071 
  39   2.0000      -0.374939       -10.2026 
  40   2.0000      -0.360104        -9.7989 
  41   2.0000      -0.353437        -9.6175 
  42   2.0000      -0.346462        -9.4277 
  43   2.0000      -0.334179        -9.0935 
  44   2.0000      -0.322389        -8.7726 
  45   2.0000      -0.312118        -8.4932 
  46   2.0000      -0.305145        -8.3034 
  47   2.0000      -0.270231        -7.3534 
  48   2.0000      -0.262593        -7.1455 
  49   2.0000      -0.258612        -7.0372 
  50   2.0000      -0.237657        -6.4670 
  51   0.0000       0.034149         0.9292 
  52   0.0000       0.063105         1.7172 
  53   0.0000       0.079393         2.1604 
  54   0.0000       0.081834         2.2268 
  55   0.0000       0.099040         2.6950 
  56   0.0000       0.101524         2.7626 
  57   0.0000       0.106480         2.8975 
  58   0.0000       0.111088         3.0229 
  59   0.0000       0.134913         3.6712 
  60   0.0000       0.138424         3.7667 
  61   0.0000       0.141132         3.8404 
  62   0.0000       0.147053         4.0015 
  63   0.0000       0.153217         4.1693 
  64   0.0000       0.155930         4.2431 
  65   0.0000       0.166696         4.5360 
  66   0.0000       0.174648         4.7524 
  67   0.0000       0.184989         5.0338 
  68   0.0000       0.189895         5.1673 
  69   0.0000       0.196777         5.3546 
  70   0.0000       0.199831         5.4377 
  71   0.0000       0.223716         6.0876 
  72   0.0000       0.225467         6.1353 
  73   0.0000       0.232958         6.3391 
  74   0.0000       0.244483         6.6527 
  75   0.0000       0.251162         6.8345 
  76   0.0000       0.257308         7.0017 
  77   0.0000       0.277461         7.5501 
  78   0.0000       0.285197         7.7606 
  79   0.0000       0.297409         8.0929 
  80   0.0000       0.323351         8.7988 
  81   0.0000       0.518539        14.1102 
  82   0.0000       0.534616        14.5476 
  83   0.0000       0.545842        14.8531 
  84   0.0000       0.547645        14.9022 
  85   0.0000       0.555550        15.1173 
  86   0.0000       0.560385        15.2488 
  87   0.0000       0.570863        15.5340 
  88   0.0000       0.579169        15.7600 
  89   0.0000       0.582476        15.8500 
  90   0.0000       0.594805        16.1855 
  91   0.0000       0.605306        16.4712 
  92   0.0000       0.630152        17.1473 
  93   0.0000       0.634139        17.2558 
  94   0.0000       0.642628        17.4868 
  95   0.0000       0.646788        17.6000 
  96   0.0000       0.654190        17.8014 
  97   0.0000       0.681268        18.5382 
  98   0.0000       0.690024        18.7765 
  99   0.0000       0.724796        19.7227 
 100   0.0000       0.746149        20.3037 
 101   0.0000       0.776337        21.1252 
 102   0.0000       0.790200        21.5024 
 103   0.0000       0.804248        21.8847 
 104   0.0000       0.822010        22.3680 
 105   0.0000       0.826163        22.4810 
 106   0.0000       0.837286        22.7837 
 107   0.0000       0.859349        23.3841 
 108   0.0000       0.874850        23.8059 
 109   0.0000       0.882572        24.0160 
 110   0.0000       0.885131        24.0856 
 111   0.0000       0.893412        24.3110 
 112   0.0000       0.895167        24.3587 
 113   0.0000       0.903783        24.5932 
 114   0.0000       0.918525        24.9943 
 115   0.0000       0.932675        25.3794 
 116   0.0000       0.938641        25.5417 
 117   0.0000       0.949251        25.8304 
 118   0.0000       0.950985        25.8776 
 119   0.0000       0.961563        26.1654 
 120   0.0000       0.981069        26.6963 
 121   0.0000       0.989424        26.9236 
 122   0.0000       1.042814        28.3764 
 123   0.0000       1.053856        28.6769 
 124   0.0000       1.065615        28.9969 
 125   0.0000       1.075429        29.2639 
 126   0.0000       1.089965        29.6595 
 127   0.0000       1.108354        30.1598 
 128   0.0000       1.143581        31.1184 
 129   0.0000       1.188497        32.3406 
 130   0.0000       1.226950        33.3870 
 131   0.0000       1.239475        33.7278 
 132   0.0000       1.269581        34.5471 
 133   0.0000       1.284047        34.9407 
 134   0.0000       1.334217        36.3059 
 135   0.0000       1.357079        36.9280 
 136   0.0000       1.401096        38.1258 
 137   0.0000       1.432707        38.9859 
 138   0.0000       1.443051        39.2674 
 139   0.0000       1.484057        40.3832 
 140   0.0000       1.495428        40.6927 
 141   0.0000       1.541880        41.9567 
 142   0.0000       1.606438        43.7134 
 143   0.0000       1.654758        45.0283 
 144   0.0000       1.690677        46.0057 
 145   0.0000       1.952496        53.1301 
 146   0.0000       1.991839        54.2007 
 147   0.0000       2.064275        56.1718 
 148   0.0000       2.127850        57.9018 

                    ********************************
                    * MULLIKEN POPULATION ANALYSIS *
                    ********************************

-----------------------
MULLIKEN ATOMIC CHARGES
-----------------------
   0 C :    0.309453
   1 C :   -0.308984
   2 C :   -0.304244
   3 C :   -0.000738
   4 O :   -0.500239
   5 H :    0.183537
   6 H :    0.156041
   7 H :    0.154796
   8 H :    0.145427
   9 H :    0.156376
  10 H :    0.152074
  11 H :    0.143653
  12 C :   -0.066107
  13 H :    0.152231
  14 H :    0.155574
  15 O :   -0.521391
  16 C :    0.053351
  17 C :    0.087311
  18 C :   -0.323273
  19 C :   -0.016354
  20 O :   -0.520748
  21 H :    0.168515
  22 H :    0.162007
  23 O :   -0.596790
  24 H :    0.161058
  25 H :    0.147653
  26 H :    0.145434
  27 H :    0.153830
  28 H :    0.370547
Sum of atomic charges:   -0.0000000

--------------------------------
MULLIKEN REDUCED ORBITAL CHARGES
--------------------------------
  0 C s       :     3.230004  s :     3.230004
      pz      :     0.798264  p :     2.460543
      px      :     0.676678
      py      :     0.985601
  1 C s       :     3.320588  s :     3.320588
      pz      :     0.988681  p :     2.988396
      px      :     1.062505
      py      :     0.937211
  2 C s       :     3.318772  s :     3.318772
      pz      :     0.909076  p :     2.985472
      px      :     1.081840
      py      :     0.994556
  3 C s       :     3.260382  s :     3.260382
      pz      :     0.940971  p :     2.740356
      px      :     1.057474
      py      :     0.741911
  4 O s       :     3.949217  s :     3.949217
      pz      :     1.319586  p :     4.551022
      px      :     1.715626
      py      :     1.515810
  5 H s       :     0.816463  s :     0.816463
  6 H s       :     0.843959  s :     0.843959
  7 H s       :     0.845204  s :     0.845204
  8 H s       :     0.854573  s :     0.854573
  9 H s       :     0.843624  s :     0.843624
 10 H s       :     0.847926  s :     0.847926
 11 H s       :     0.856347  s :     0.856347
 12 C s       :     3.308409  s :     3.308409
      pz      :     0.833536  p :     2.757698
      px      :     1.000458
      py      :     0.923704
 13 H s       :     0.847769  s :     0.847769
 14 H s       :     0.844426  s :     0.844426
 15 O s       :     3.949797  s :     3.949797
      pz      :     1.662983  p :     4.571594
      px      :     1.309831
      py      :     1.598781
 16 C s       :     3.270930  s :     3.270930
      pz      :     0.835833  p :     2.675719
      px      :     1.042914
      py      :     0.796972
 17 C s       :     3.285584  s :     3.285584
      pz      :     0.924635  p :     2.627105
      px      :     0.947298
      py      :     0.755173
 18 C s       :     3.326070  s :     3.326070
      pz      :     1.085385  p :     2.997203
      px      :     0.965543
      py      :     0.946275
 19 C s       :     3.264095  s :     3.264095
      pz      :     1.021540  p :     2.752259
      px      :     0.813969
      py      :     0.916750
 20 O s       :     3.948627  s :     3.948627
      pz      :     1.599668  p :     4.572122
      px      :     1.401634
      py      :     1.570820
 21 H s       :     0.831485  s :     0.831485
 22 H s       :     0.837993  s :     0.837993
 23 O s       :     3.950525  s :     3.950525
      pz      :     1.375665  p :     4.646265
      px      :     1.731414
      py      :     1.539186
 24 H s       :     0.838942  s :     0.838942
 25 H s       :     0.852347  s :     0.852347
 26 H s       :     0.854566  s :     0.854566
 27 H s       :     0.846170  s :     0.846170
 28 H s       :     0.629453  s :     0.629453


                     *******************************
                     * LOEWDIN POPULATION ANALYSIS *
                     *******************************

----------------------
LOEWDIN ATOMIC CHARGES
----------------------
   0 C :    0.187577
   1 C :   -0.240044
   2 C :   -0.216837
   3 C :   -0.028469
   4 O :   -0.298661
   5 H :    0.120346
   6 H :    0.120856
   7 H :    0.124271
   8 H :    0.115588
   9 H :    0.113667
  10 H :    0.107964
  11 H :    0.103269
  12 C :   -0.061410
  13 H :    0.114447
  14 H :    0.108227
  15 O :   -0.358262
  16 C :   -0.000446
  17 C :    0.040411
  18 C :   -0.236875
  19 C :   -0.033171
  20 O :   -0.320513
  21 H :    0.117264
  22 H :    0.119815
  23 O :   -0.441995
  24 H :    0.125445
  25 H :    0.110898
  26 H :    0.102812
  27 H :    0.107714
  28 H :    0.296109

-------------------------------
LOEWDIN REDUCED ORBITAL CHARGES
-------------------------------
  0 C s       :     2.979540  s :     2.979540
      pz      :     0.921504  p :     2.832883
      px      :     0.824512
      py      :     1.086867
  1 C s       :     2.979097  s :     2.979097
      pz      :     1.080368  p :     3.260947
      px      :     1.115532
      py      :     1.065047
  2 C s       :     2.972708  s :     2.972708
      pz      :     1.032713  p :     3.244128
      px      :     1.129802
      py      :     1.081612
  3 C s       :     2.983948  s :     2.983948
      pz      :     1.039367  p :     3.044520
      px      :     1.119870
      py      :     0.885284
  4 O s       :     3.608106  s :     3.608106
      pz      :     1.379989  p :     4.690555
      px      :     1.747821
      py      :     1.562746
  5 H s       :     0.879654  s :     0.879654
  6 H s       :     0.879144  s :     0.879144
  7 H s       :     0.875729  s :     0.875729
  8 H s       :     0.884412  s :     0.884412
  9 H s       :     0.886333  s :     0.886333
 10 H s       :     0.892036  s :     0.892036
 11 H s       :     0.896731  s :     0.896731
 12 C s       :     3.006442  s :     3.006442
      pz      :     0.974831  p :     3.054968
      px      :     1.081528
      py      :     0.998609
 13 H s       :     0.885553  s :     0.885553
 14 H s       :     0.891773  s :     0.891773
 15 O s       :     3.656553  s :     3.656553
      pz      :     1.693201  p :     4.701709
      px      :     1.367846
      py      :     1.640662
 16 C s       :     2.969139  s :     2.969139
      pz      :     0.996228  p :     3.031307
      px      :     1.083963
      py      :     0.951116
 17 C s       :     2.972067  s :     2.972067
      pz      :     1.005556  p :     2.987522
      px      :     1.068110
      py      :     0.913856
 18 C s       :     2.981402  s :     2.981402
      pz      :     1.125957  p :     3.255472
      px      :     1.071189
      py      :     1.058326
 19 C s       :     2.981888  s :     2.981888
      pz      :     1.091950  p :     3.051283
      px      :     0.929115
      py      :     1.030217
 20 O s       :     3.601801  s :     3.601801
      pz      :     1.640397  p :     4.718713
      px      :     1.460761
      py      :     1.617555
 21 H s       :     0.882736  s :     0.882736
 22 H s       :     0.880185  s :     0.880185
 23 O s       :     3.689622  s :     3.689622
      pz      :     1.415036  p :     4.752373
      px      :     1.754133
      py      :     1.583204
 24 H s       :     0.874555  s :     0.874555
 25 H s       :     0.889102  s :     0.889102
 26 H s       :     0.897188  s :     0.897188
 27 H s       :     0.892286  s :     0.892286
 28 H s       :     0.703891  s :     0.703891


                      *****************************
                      * MAYER POPULATION ANALYSIS *
                      *****************************

  NA   - Mulliken gross atomic population
  ZA   - Total nuclear charge
  QA   - Mulliken gross atomic charge
  VA   - Mayer's total valence
  BVA  - Mayer's bonded valence
  FA   - Mayer's free valence

  ATOM       NA         ZA         QA         VA         BVA        FA
  0 C      5.6905     6.0000     0.3095     3.5929     3.5929    -0.0000
  1 C      6.3090     6.0000    -0.3090     3.7159     3.7159    -0.0000
  2 C      6.3042     6.0000    -0.3042     3.7568     3.7568    -0.0000
  3 C      6.0007     6.0000    -0.0007     3.6573     3.6573     0.0000
  4 O      8.5002     8.0000    -0.5002     1.8231     1.8231     0.0000
  5 H      0.8165     1.0000     0.1835     0.9380     0.9380    -0.0000
  6 H      0.8440     1.0000     0.1560     0.9319     0.9319    -0.0000
  7 H      0.8452     1.0000     0.1548     0.9381     0.9381    -0.0000
  8 H      0.8546     1.0000     0.1454     0.9367     0.9367    -0.0000
  9 H      0.8436     1.0000     0.1564     0.9336     0.9336    -0.0000
 10 H      0.8479     1.0000     0.1521     0.9256     0.9256     0.0000
 11 H      0.8563     1.0000     0.1437     0.9284     0.9284     0.0000
 12 C      6.0661     6.0000    -0.0661     3.6457     3.6457    -0.0000
 13 H      0.8478     1.0000     0.1522     0.9380     0.9380     0.0000
 14 H      0.8444     1.0000     0.1556     0.9276     0.9276     0.0000
 15 O      8.5214     8.0000    -0.5214     1.7831     1.7831     0.0000
 16 C      5.9466     6.0000     0.0534     3.5325     3.5325     0.0000
 17 C      5.9127     6.0000     0.0873     3.6620     3.6620    -0.0000
 18 C      6.3233     6.0000    -0.3233     3.7228     3.7228     0.0000
 19 C      6.0164     6.0000    -0.0164     3.6456     3.6456    -0.0000
 20 O      8.5207     8.0000    -0.5207     1.7606     1.7606     0.0000
 21 H      0.8315     1.0000     0.1685     0.9302     0.9302     0.0000
 22 H      0.8380     1.0000     0.1620     0.9288     0.9288     0.0000
 23 O      8.5968     8.0000    -0.5968     1.7795     1.7795     0.0000
 24 H      0.8389     1.0000     0.1611     0.9373     0.9373     0.0000
 25 H      0.8523     1.0000     0.1477     0.9409     0.9409     0.0000
 26 H      0.8546     1.0000     0.1454     0.9257     0.9257    -0.0000
 27 H      0.8462     1.0000     0.1538     0.9268     0.9268    -0.0000
 28 H      0.6295     1.0000     0.3705     0.8473     0.8473     0.0000

  Mayer bond orders larger than 0.100000
B(  0-C ,  1-C ) :   0.9276 B(  0-C ,  4-O ) :   0.9270 B(  0-C ,  5-H ) :   0.9049 
B(  0-C , 15-O ) :   0.7976 B(  1-C ,  2-C ) :   0.9440 B(  1-C ,  6-H ) :   0.9343 
B(  1-C ,  7-H ) :   0.9046 B(  2-C ,  3-C ) :   0.9542 B(  2-C ,  8-H ) :   0.9446 
B(  2-C ,  9-H ) :   0.9443 B(  3-C ,  4-O ) :   0.8376 B(  3-C , 10-H ) :   0.9337 
B(  3-C , 11-H ) :   0.9384 B( 12-C , 13-H ) :   0.9305 B( 12-C , 14-H ) :   0.9162 
B( 12-C , 15-O ) :   0.8479 B( 12-C , 16-C ) :   0.8775 B( 16-C , 17-C ) :   0.8804 
B( 16-C , 20-O ) :   0.8419 B( 16-C , 21-H ) :   0.9013 B( 17-C , 18-C ) :   0.9184 
B( 17-C , 22-H ) :   0.9341 B( 17-C , 23-O ) :   0.9240 B( 18-C , 19-C ) :   0.9334 
B( 18-C , 24-H ) :   0.9419 B( 18-C , 25-H ) :   0.9411 B( 19-C , 20-O ) :   0.8370 
B( 19-C , 26-H ) :   0.9327 B( 19-C , 27-H ) :   0.9374 B( 23-O , 28-H ) :   0.7594 


-------
TIMINGS
-------

Total SCF time: 0 days 0 hours 2 min 33 sec 

Total time                  ....     153.023 sec
Sum of individual times     ....     152.076 sec  ( 99.4%)

Fock matrix formation       ....     146.212 sec  ( 95.5%)
  XC integration            ....      13.114 sec  (  9.0% of F)
    Basis function eval.    ....       3.850 sec  ( 29.4% of XC)
    Density eval.           ....       2.126 sec  ( 16.2% of XC)
    XC-Functional eval.     ....       0.986 sec  (  7.5% of XC)
    XC-Potential eval.      ....       2.313 sec  ( 17.6% of XC)
Diagonalization             ....       0.063 sec  (  0.0%)
Density matrix formation    ....       0.007 sec  (  0.0%)
Population analysis         ....       0.045 sec  (  0.0%)
Initial guess               ....       1.094 sec  (  0.7%)
Orbital Transformation      ....       0.000 sec  (  0.0%)
Orbital Orthonormalization  ....       0.000 sec  (  0.0%)
DIIS solution               ....       0.083 sec  (  0.1%)
SOSCF solution              ....       0.081 sec  (  0.1%)
Grid generation             ....       4.491 sec  (  2.9%)

-------------------------   --------------------
FINAL SINGLE POINT ENERGY      -652.816998432063
-------------------------   --------------------

------------------------------------------------------------------------------
                         ORCA SCF GRADIENT CALCULATION
------------------------------------------------------------------------------

Gradient of the Kohn-Sham DFT energy:
Kohn-Sham wavefunction type      ... RKS
Hartree-Fock exchange scaling    ...    0.200
Number of operators              ...    1
Number of atoms                  ...   29
Basis set dimensions             ...  149
Integral neglect threshold       ... 2.5e-11
Integral primitive cutoff        ... 2.5e-12

Nuclear repulsion gradient       ... done
One Electron Gradient            ... done
Pre-screening matrix             ... done
Starting the two electron gradient:
Two electron gradient done
Exchange-correlation gradient    ... done

------------------
CARTESIAN GRADIENT
------------------

   1   C   :    0.004184859   -0.001345117   -0.006210904
   2   C   :    0.001859354   -0.007042104   -0.010002888
   3   C   :   -0.001932526    0.000559633   -0.002282923
   4   C   :    0.001383851   -0.005521700   -0.004338168
   5   O   :    0.017720277   -0.008237667    0.020970950
   6   H   :    0.009111203    0.001877497   -0.003566701
   7   H   :    0.000109656    0.002374041    0.000121480
   8   H   :   -0.012726037   -0.001283314   -0.012686167
   9   H   :   -0.000447576    0.000529689    0.000121148
  10   H   :   -0.000623600    0.000922706    0.000147525
  11   H   :   -0.000512612    0.000861333    0.001391353
  12   H   :   -0.000279154    0.001128657    0.000832426
  13   C   :   -0.022643876    0.006495523   -0.001859879
  14   H   :   -0.003984982    0.006082954   -0.010085937
  15   H   :    0.000869504    0.002904410   -0.004083503
  16   O   :   -0.007618428   -0.021332893    0.013548525
  17   C   :    0.003879359    0.006299158   -0.006227628
  18   C   :    0.009393748    0.025185471   -0.028418380
  19   C   :   -0.000560944   -0.002428441    0.005560590
  20   C   :    0.005824056    0.003907397    0.001311521
  21   O   :   -0.001832558    0.000812202   -0.006921142
  22   H   :    0.009249150    0.004304209    0.013167124
  23   H   :   -0.000545682    0.008823094   -0.006558019
  24   O   :    0.036165671   -0.029502708   -0.010194052
  25   H   :   -0.000937016    0.000233523   -0.000958860
  26   H   :   -0.000710672    0.001521191    0.000577052
  27   H   :   -0.000480867   -0.000324993    0.000791245
  28   H   :   -0.000359174   -0.000467401    0.000832180
  29   H   :   -0.043554984    0.002663650    0.055022030

Difference to translation invariance:
           :    0.0000000000   -0.0000000001   -0.0000000000

Norm of the cartesian gradient     ...    0.1111214546
RMS gradient                       ...    0.0119134704
MAX gradient                       ...    0.0550220301

-------
TIMINGS
-------

Total SCF gradient time            ...       42.485 sec

One electron gradient       ....       0.470 sec  (  1.1%)
Prescreening matrices       ....       0.083 sec  (  0.2%)
Two electron gradient       ....      26.580 sec  ( 62.6%)
XC gradient                 ....      15.218 sec  ( 35.8%)
------------------------------------------------------------------------------
                         ORCA GEOMETRY RELAXATION STEP
------------------------------------------------------------------------------

Reading the OPT-File                    .... done
Getting information on internals        .... done
Copying old internal coords+grads       .... done
Making the new internal coordinates     .... (new redundants).... done
Validating the new internal coordinates .... (new redundants).... done
Calculating the B-matrix                .... done
Calculating the G,G- and P matrices     .... done
Transforming gradient to internals      .... done
Projecting the internal gradient        .... done
Number of atoms                         ....  29
Number of internal coordinates          .... 172
Current Energy                          ....  -652.816998432 Eh
Current gradient norm                   ....     0.111121455 Eh/bohr
Maximum allowed component of the step   ....  0.300
Current trust radius                    ....  0.300
Evaluating the initial hessian          ....  (Almloef) done
Projecting the Hessian                  .... done
Forming the augmented Hessian           .... done
Diagonalizing the augmented Hessian     .... done
Last element of RFO vector              ....  0.904049842
Lowest eigenvalues of augmented Hessian:
 -0.066710646  0.008570883  0.033011429  0.033281454  0.036624448
Length of the computed step             ....  0.472791465
Warning: the length of the step is outside the trust region - taking restricted step instead
The input lambda is                     ....    -0.066711
   iter:   1  x=   -0.134203  g=    1.978462 f(x)=     0.133532
   iter:   2  x=   -0.196977  g=    0.797996 f(x)=     0.050093
   iter:   3  x=   -0.222416  g=    0.465912 f(x)=     0.011853
   iter:   4  x=   -0.225071  g=    0.388322 f(x)=     0.001031
   iter:   5  x=   -0.225096  g=    0.381337 f(x)=     0.000009
   iter:   6  x=   -0.225096  g=    0.381274 f(x)=     0.000000
   iter:   7  x=   -0.225096  g=    0.381274 f(x)=    -0.000000
The output lambda is                    ....    -0.225096 (7 iterations)
The final length of the internal step   ....  0.300000000
Converting the step to cartesian space:
 Initial RMS(Int)=    0.0228747855
Transforming coordinates:
 Iter   0:  RMS(Cart)=    0.2554640958 RMS(Int)=    0.0226655558
 Iter   1:  RMS(Cart)=    0.0201691450 RMS(Int)=    0.0092683539
 Iter   2:  RMS(Cart)=    0.0039413644 RMS(Int)=    0.0007557569
 Iter   3:  RMS(Cart)=    0.0005737201 RMS(Int)=    0.0002840936
 Iter   4:  RMS(Cart)=    0.0000862591 RMS(Int)=    0.0000177814
 Iter   5:  RMS(Cart)=    0.0000138439 RMS(Int)=    0.0000069965
 Iter   6:  RMS(Cart)=    0.0000022885 RMS(Int)=    0.0000005918
 Iter   7:  RMS(Cart)=    0.0000003657 RMS(Int)=    0.0000001875
 Iter   8:  RMS(Cart)=    0.0000000591 RMS(Int)=    0.0000000182
Imposing constraints:
 Iter   0:  RMS(Cart)=    0.0001883429 RMS(Int)=    0.0001052984
 Iter   1:  RMS(Cart)=    0.0000966734 RMS(Int)=    0.0000630837
 Iter   2:  RMS(Cart)=    0.0000525837 RMS(Int)=    0.0000475813
[...]
  29   2.0000      -0.491132       -13.3644 
  30   2.0000      -0.472671       -12.8620 
  31   2.0000      -0.461127       -12.5479 
  32   2.0000      -0.447174       -12.1682 
  33   2.0000      -0.439673       -11.9641 
  34   2.0000      -0.429040       -11.6748 
  35   2.0000      -0.418476       -11.3873 
  36   2.0000      -0.407378       -11.0853 
  37   2.0000      -0.405746       -11.0409 
  38   2.0000      -0.385765       -10.4972 
  39   2.0000      -0.377795       -10.2803 
  40   2.0000      -0.361454        -9.8357 
  41   2.0000      -0.361039        -9.8244 
  42   2.0000      -0.354219        -9.6388 
  43   2.0000      -0.340790        -9.2734 
  44   2.0000      -0.319774        -8.7015 
  45   2.0000      -0.309129        -8.4118 
  46   2.0000      -0.304140        -8.2761 
  47   2.0000      -0.271980        -7.4010 
  48   2.0000      -0.262970        -7.1558 
  49   2.0000      -0.260405        -7.0860 
  50   2.0000      -0.243586        -6.6283 
  51   0.0000       0.055947         1.5224 
  52   0.0000       0.068241         1.8569 
  53   0.0000       0.083670         2.2768 
  54   0.0000       0.096611         2.6289 
  55   0.0000       0.103804         2.8247 
  56   0.0000       0.108126         2.9423 
  57   0.0000       0.116597         3.1728 
  58   0.0000       0.122238         3.3263 
  59   0.0000       0.138438         3.7671 
  60   0.0000       0.139898         3.8068 
  61   0.0000       0.147315         4.0086 
  62   0.0000       0.151563         4.1242 
  63   0.0000       0.155588         4.2338 
  64   0.0000       0.164722         4.4823 
  65   0.0000       0.170447         4.6381 
  66   0.0000       0.186092         5.0638 
  67   0.0000       0.188003         5.1158 
  68   0.0000       0.193217         5.2577 
  69   0.0000       0.203467         5.5366 
  70   0.0000       0.212975         5.7953 
  71   0.0000       0.226456         6.1622 
  72   0.0000       0.232954         6.3390 
  73   0.0000       0.239060         6.5052 
  74   0.0000       0.253455         6.8969 
  75   0.0000       0.261564         7.1175 
  76   0.0000       0.271879         7.3982 
  77   0.0000       0.277137         7.5413 
  78   0.0000       0.287698         7.8287 
  79   0.0000       0.318378         8.6635 
  80   0.0000       0.321082         8.7371 
  81   0.0000       0.512821        13.9546 
  82   0.0000       0.523312        14.2400 
  83   0.0000       0.539172        14.6716 
  84   0.0000       0.546821        14.8798 
  85   0.0000       0.550807        14.9882 
  86   0.0000       0.552908        15.0454 
  87   0.0000       0.566538        15.4163 
  88   0.0000       0.576706        15.6930 
  89   0.0000       0.581182        15.8148 
  90   0.0000       0.594118        16.1668 
  91   0.0000       0.609451        16.5840 
  92   0.0000       0.627287        17.0693 
  93   0.0000       0.633478        17.2378 
  94   0.0000       0.644369        17.5342 
  95   0.0000       0.655560        17.8387 
  96   0.0000       0.662562        18.0292 
  97   0.0000       0.665355        18.1052 
  98   0.0000       0.692227        18.8365 
  99   0.0000       0.715814        19.4783 
 100   0.0000       0.732362        19.9286 
 101   0.0000       0.750301        20.4167 
 102   0.0000       0.791764        21.5450 
 103   0.0000       0.808048        21.9881 
 104   0.0000       0.828931        22.5564 
 105   0.0000       0.833761        22.6878 
 106   0.0000       0.842443        22.9241 
 107   0.0000       0.867317        23.6009 
 108   0.0000       0.873062        23.7572 
 109   0.0000       0.882776        24.0216 
 110   0.0000       0.887362        24.1464 
 111   0.0000       0.891154        24.2495 
 112   0.0000       0.898469        24.4486 
 113   0.0000       0.907615        24.6975 
 114   0.0000       0.921454        25.0740 
 115   0.0000       0.932885        25.3851 
 116   0.0000       0.934523        25.4297 
 117   0.0000       0.953645        25.9500 
 118   0.0000       0.960111        26.1259 
 119   0.0000       0.966432        26.2979 
 120   0.0000       0.974608        26.5204 
 121   0.0000       1.001661        27.2566 
 122   0.0000       1.013454        27.5775 
 123   0.0000       1.046820        28.4854 
 124   0.0000       1.062203        28.9040 
 125   0.0000       1.071392        29.1541 
 126   0.0000       1.081810        29.4375 
 127   0.0000       1.123492        30.5718 
 128   0.0000       1.153749        31.3951 
 129   0.0000       1.175126        31.9768 
 130   0.0000       1.205328        32.7986 
 131   0.0000       1.224552        33.3218 
 132   0.0000       1.262053        34.3422 
 133   0.0000       1.287735        35.0411 
 134   0.0000       1.323488        36.0139 
 135   0.0000       1.372902        37.3586 
 136   0.0000       1.411878        38.4192 
 137   0.0000       1.443742        39.2862 
 138   0.0000       1.446764        39.3684 
 139   0.0000       1.492294        40.6074 
 140   0.0000       1.511044        41.1176 
 141   0.0000       1.568317        42.6761 
 142   0.0000       1.627639        44.2903 
 143   0.0000       1.646652        44.8077 
 144   0.0000       1.703497        46.3545 
 145   0.0000       1.939044        52.7641 
 146   0.0000       1.998278        54.3759 
 147   0.0000       2.043546        55.6077 
 148   0.0000       2.110693        57.4349 

                    ********************************
                    * MULLIKEN POPULATION ANALYSIS *
                    ********************************

-----------------------
MULLIKEN ATOMIC CHARGES
-----------------------
   0 C :    0.302335
   1 C :   -0.303111
   2 C :   -0.302143
   3 C :   -0.000373
   4 O :   -0.495464
   5 H :    0.170341
   6 H :    0.157519
   7 H :    0.152558
   8 H :    0.146701
   9 H :    0.156626
  10 H :    0.154614
  11 H :    0.146143
  12 C :   -0.036322
  13 H :    0.162264
  14 H :    0.150358
  15 O :   -0.545729
  16 C :    0.048567
  17 C :    0.102618
  18 C :   -0.314073
  19 C :   -0.018107
  20 O :   -0.520424
  21 H :    0.158998
  22 H :    0.158331
  23 O :   -0.617387
  24 H :    0.158177
  25 H :    0.147111
  26 H :    0.145187
  27 H :    0.151995
  28 H :    0.382689
Sum of atomic charges:    0.0000000

--------------------------------
MULLIKEN REDUCED ORBITAL CHARGES
--------------------------------
  0 C s       :     3.203305  s :     3.203305
      pz      :     0.782543  p :     2.494360
      px      :     0.695233
      py      :     1.016583
  1 C s       :     3.319848  s :     3.319848
      pz      :     0.997850  p :     2.983262
      px      :     1.031408
      py      :     0.954005
  2 C s       :     3.318478  s :     3.318478
      pz      :     0.907678  p :     2.983665
      px      :     1.083053
      py      :     0.992935
  3 C s       :     3.260996  s :     3.260996
      pz      :     0.932542  p :     2.739376
      px      :     1.056370
      py      :     0.750464
  4 O s       :     3.935215  s :     3.935215
      pz      :     1.254913  p :     4.560248
      px      :     1.778232
      py      :     1.527103
  5 H s       :     0.829659  s :     0.829659
  6 H s       :     0.842481  s :     0.842481
  7 H s       :     0.847442  s :     0.847442
  8 H s       :     0.853299  s :     0.853299
  9 H s       :     0.843374  s :     0.843374
 10 H s       :     0.845386  s :     0.845386
 11 H s       :     0.853857  s :     0.853857
 12 C s       :     3.276585  s :     3.276585
      pz      :     0.837126  p :     2.759736
      px      :     0.981840
      py      :     0.940771
 13 H s       :     0.837736  s :     0.837736
 14 H s       :     0.849642  s :     0.849642
 15 O s       :     3.918299  s :     3.918299
      pz      :     1.663449  p :     4.627430
      px      :     1.336253
      py      :     1.627728
 16 C s       :     3.266739  s :     3.266739
      pz      :     0.857877  p :     2.684694
      px      :     1.007574
      py      :     0.819243
 17 C s       :     3.243403  s :     3.243403
      pz      :     0.964718  p :     2.653979
      px      :     0.945704
      py      :     0.743557
 18 C s       :     3.323874  s :     3.323874
      pz      :     1.086368  p :     2.990199
      px      :     0.965189
      py      :     0.938642
 19 C s       :     3.268679  s :     3.268679
      pz      :     1.036343  p :     2.749427
      px      :     0.807050
      py      :     0.906034
 20 O s       :     3.949551  s :     3.949551
      pz      :     1.659779  p :     4.570873
      px      :     1.353532
      py      :     1.557561
 21 H s       :     0.841002  s :     0.841002
 22 H s       :     0.841669  s :     0.841669
 23 O s       :     3.921213  s :     3.921213
      pz      :     1.308708  p :     4.696174
      px      :     1.848605
      py      :     1.538861
 24 H s       :     0.841823  s :     0.841823
 25 H s       :     0.852889  s :     0.852889
 26 H s       :     0.854813  s :     0.854813
 27 H s       :     0.848005  s :     0.848005
 28 H s       :     0.617311  s :     0.617311


                     *******************************
                     * LOEWDIN POPULATION ANALYSIS *
                     *******************************

----------------------
LOEWDIN ATOMIC CHARGES
----------------------
   0 C :    0.178760
   1 C :   -0.233583
   2 C :   -0.216474
   3 C :   -0.026237
   4 O :   -0.298967
   5 H :    0.111489
   6 H :    0.122350
   7 H :    0.116697
   8 H :    0.116884
   9 H :    0.113888
  10 H :    0.109510
  11 H :    0.104737
  12 C :   -0.053829
  13 H :    0.116045
  14 H :    0.104781
  15 O :   -0.349515
  16 C :    0.001235
  17 C :    0.037338
  18 C :   -0.240154
  19 C :   -0.031453
  20 O :   -0.322925
  21 H :    0.110152
  22 H :    0.113685
  23 O :   -0.417838
  24 H :    0.124326
  25 H :    0.111553
  26 H :    0.103860
  27 H :    0.107663
  28 H :    0.286021

-------------------------------
LOEWDIN REDUCED ORBITAL CHARGES
-------------------------------
  0 C s       :     2.957576  s :     2.957576
      pz      :     0.917542  p :     2.863664
      px      :     0.855554
      py      :     1.090568
  1 C s       :     2.979213  s :     2.979213
      pz      :     1.080799  p :     3.254370
      px      :     1.106455
      py      :     1.067116
  2 C s       :     2.972654  s :     2.972654
      pz      :     1.031235  p :     3.243821
      px      :     1.130050
      py      :     1.082535
  3 C s       :     2.982741  s :     2.982741
      pz      :     1.036867  p :     3.043496
      px      :     1.115700
      py      :     0.890929
  4 O s       :     3.591345  s :     3.591345
      pz      :     1.329174  p :     4.707622
      px      :     1.804419
      py      :     1.574028
  5 H s       :     0.888511  s :     0.888511
  6 H s       :     0.877650  s :     0.877650
  7 H s       :     0.883303  s :     0.883303
  8 H s       :     0.883116  s :     0.883116
  9 H s       :     0.886112  s :     0.886112
 10 H s       :     0.890490  s :     0.890490
 11 H s       :     0.895263  s :     0.895263
 12 C s       :     2.984419  s :     2.984419
      pz      :     0.985615  p :     3.069410
      px      :     1.062061
      py      :     1.021734
 13 H s       :     0.883955  s :     0.883955
 14 H s       :     0.895219  s :     0.895219
 15 O s       :     3.587773  s :     3.587773
      pz      :     1.690697  p :     4.761743
      px      :     1.398142
      py      :     1.672903
 16 C s       :     2.965524  s :     2.965524
      pz      :     1.014167  p :     3.033241
      px      :     1.058580
      py      :     0.960495
 17 C s       :     2.950459  s :     2.950459
      pz      :     1.039447  p :     3.012203
      px      :     1.057011
      py      :     0.915745
 18 C s       :     2.982947  s :     2.982947
      pz      :     1.129078  p :     3.257207
      px      :     1.071794
      py      :     1.056335
 19 C s       :     2.984139  s :     2.984139
      pz      :     1.102388  p :     3.047314
      px      :     0.922098
      py      :     1.022829
 20 O s       :     3.605966  s :     3.605966
      pz      :     1.695148  p :     4.716958
      px      :     1.415658
      py      :     1.606152
 21 H s       :     0.889848  s :     0.889848
 22 H s       :     0.886315  s :     0.886315
 23 O s       :     3.604009  s :     3.604009
      pz      :     1.356099  p :     4.813829
      px      :     1.870695
      py      :     1.587035
 24 H s       :     0.875674  s :     0.875674
 25 H s       :     0.888447  s :     0.888447
 26 H s       :     0.896140  s :     0.896140
 27 H s       :     0.892337  s :     0.892337
 28 H s       :     0.713979  s :     0.713979


                      *****************************
                      * MAYER POPULATION ANALYSIS *
                      *****************************

  NA   - Mulliken gross atomic population
  ZA   - Total nuclear charge
  QA   - Mulliken gross atomic charge
  VA   - Mayer's total valence
  BVA  - Mayer's bonded valence
  FA   - Mayer's free valence

  ATOM       NA         ZA         QA         VA         BVA        FA
  0 C      5.6977     6.0000     0.3023     3.6270     3.6270    -0.0000
  1 C      6.3031     6.0000    -0.3031     3.7194     3.7194     0.0000
  2 C      6.3021     6.0000    -0.3021     3.7594     3.7594     0.0000
  3 C      6.0004     6.0000    -0.0004     3.6560     3.6560     0.0000
  4 O      8.4955     8.0000    -0.4955     1.8013     1.8013    -0.0000
  5 H      0.8297     1.0000     0.1703     0.9399     0.9399     0.0000
  6 H      0.8425     1.0000     0.1575     0.9312     0.9312     0.0000
  7 H      0.8474     1.0000     0.1526     0.9427     0.9427     0.0000
  8 H      0.8533     1.0000     0.1467     0.9366     0.9366     0.0000
  9 H      0.8434     1.0000     0.1566     0.9331     0.9331     0.0000
 10 H      0.8454     1.0000     0.1546     0.9260     0.9260     0.0000
 11 H      0.8539     1.0000     0.1461     0.9285     0.9285     0.0000
 12 C      6.0363     6.0000    -0.0363     3.6252     3.6252     0.0000
 13 H      0.8377     1.0000     0.1623     0.9336     0.9336    -0.0000
 14 H      0.8496     1.0000     0.1504     0.9299     0.9299     0.0000
 15 O      8.5457     8.0000    -0.5457     1.7315     1.7315     0.0000
 16 C      5.9514     6.0000     0.0486     3.5613     3.5613    -0.0000
 17 C      5.8974     6.0000     0.1026     3.6690     3.6690    -0.0000
 18 C      6.3141     6.0000    -0.3141     3.7103     3.7103    -0.0000
 19 C      6.0181     6.0000    -0.0181     3.6532     3.6532     0.0000
 20 O      8.5204     8.0000    -0.5204     1.7626     1.7626     0.0000
 21 H      0.8410     1.0000     0.1590     0.9356     0.9356     0.0000
 22 H      0.8417     1.0000     0.1583     0.9258     0.9258     0.0000
 23 O      8.6174     8.0000    -0.6174     1.7528     1.7528    -0.0000
 24 H      0.8418     1.0000     0.1582     0.9378     0.9378     0.0000
 25 H      0.8529     1.0000     0.1471     0.9406     0.9406     0.0000
 26 H      0.8548     1.0000     0.1452     0.9259     0.9259    -0.0000
 27 H      0.8480     1.0000     0.1520     0.9272     0.9272     0.0000
 28 H      0.6173     1.0000     0.3827     0.8385     0.8385     0.0000

  Mayer bond orders larger than 0.100000
B(  0-C ,  1-C ) :   0.9365 B(  0-C ,  4-O ) :   0.9339 B(  0-C ,  5-H ) :   0.9096 
B(  0-C , 15-O ) :   0.7981 B(  1-C ,  2-C ) :   0.9463 B(  1-C ,  6-H ) :   0.9342 
B(  1-C ,  7-H ) :   0.9191 B(  2-C ,  3-C ) :   0.9534 B(  2-C ,  8-H ) :   0.9448 
B(  2-C ,  9-H ) :   0.9442 B(  3-C ,  4-O ) :   0.8328 B(  3-C , 10-H ) :   0.9348 
B(  3-C , 11-H ) :   0.9394 B( 12-C , 13-H ) :   0.9340 B( 12-C , 14-H ) :   0.9194 
B( 12-C , 15-O ) :   0.8184 B( 12-C , 16-C ) :   0.8815 B( 16-C , 17-C ) :   0.8941 
B( 16-C , 20-O ) :   0.8463 B( 16-C , 21-H ) :   0.9170 B( 17-C , 18-C ) :   0.9067 
B( 17-C , 22-H ) :   0.9345 B( 17-C , 23-O ) :   0.9235 B( 18-C , 19-C ) :   0.9397 
B( 18-C , 24-H ) :   0.9427 B( 18-C , 25-H ) :   0.9425 B( 19-C , 20-O ) :   0.8334 
B( 19-C , 26-H ) :   0.9336 B( 19-C , 27-H ) :   0.9383 B( 23-O , 28-H ) :   0.7434 


-------
TIMINGS
-------

Total SCF time: 0 days 0 hours 0 min 55 sec 

Total time                  ....      55.851 sec
Sum of individual times     ....      55.310 sec  ( 99.0%)

Fock matrix formation       ....      47.777 sec  ( 85.5%)
  XC integration            ....       5.191 sec  ( 10.9% of F)
    Basis function eval.    ....       1.864 sec  ( 35.9% of XC)
    Density eval.           ....       1.000 sec  ( 19.3% of XC)
    XC-Functional eval.     ....       0.390 sec  (  7.5% of XC)
    XC-Potential eval.      ....       1.164 sec  ( 22.4% of XC)
Diagonalization             ....       0.009 sec  (  0.0%)
Density matrix formation    ....       0.003 sec  (  0.0%)
Population analysis         ....       0.355 sec  (  0.6%)
Initial guess               ....       0.007 sec  (  0.0%)
Orbital Transformation      ....       0.000 sec  (  0.0%)
Orbital Orthonormalization  ....       0.005 sec  (  0.0%)
DIIS solution               ....       0.003 sec  (  0.0%)
SOSCF solution              ....       0.049 sec  (  0.1%)
Grid generation             ....       7.107 sec  ( 12.7%)

-------------------------   --------------------
FINAL SINGLE POINT ENERGY      -652.854581087739
-------------------------   --------------------

                                *** OPTIMIZATION RUN DONE ***

                            ***************************************
                            *     ORCA property calculations      *
                            ***************************************

                                    ---------------------
                                    Active property flags
                                    ---------------------
   (+) Dipole Moment


------------------------------------------------------------------------------
                       ORCA ELECTRIC PROPERTIES CALCULATION
------------------------------------------------------------------------------

Dipole Moment Calculation                       ... on
Quadrupole Moment Calculation                   ... off
Polarizability Calculation                      ... off
GBWName                                         ... project_8051/ensemble_150_45.gbw
Electron density file                           ... project_8051/ensemble_150_45.scfp
The origin for moment calculation is the CENTER OF MASS  = (-42.094169, 50.805929 85.362287)

-------------
DIPOLE MOMENT
-------------
                                X             Y             Z
Electronic contribution:     -0.21340      -3.21630       0.21401
Nuclear contribution   :      0.21373       4.22470      -0.40238
                        -----------------------------------------
Total Dipole Moment    :      0.00033       1.00841      -0.18837
                        -----------------------------------------
Magnitude (a.u.)       :      1.02585
Magnitude (Debye)      :      2.60750



--------------------
Rotational spectrum 
--------------------
 
Rotational constants in cm-1:     0.059800     0.014522     0.013076 
Rotational constants in MHz :  1792.751069   435.373017   392.017286 

 Dipole components along the rotational axes: 
x,y,z [a.u.] :    -0.149795    -1.012481     0.069356 
x,y,z [Debye]:    -0.380748    -2.573522     0.176290 

 

Timings for individual modules:

Sum of individual times         ...     1247.775 sec (=  20.796 min)
GTO integral calculation        ...        4.271 sec (=   0.071 min)   0.3 %
SCF iterations                  ...      902.237 sec (=  15.037 min)  72.3 %
SCF Gradient evaluation         ...      334.732 sec (=   5.579 min)  26.8 %
Geometry relaxation             ...        6.534 sec (=   0.109 min)   0.5 %
                             ****ORCA TERMINATED NORMALLY****
TOTAL RUN TIME: 0 days 0 hours 20 minutes 59 seconds 690 msec
