
                                 *****************
                                 * O   R   C   A *
                                 *****************

           --- An Ab Initio, DFT and Semiempirical electronic structure package ---

                  #######################################################
                  #                        -***-                        #
                  #          Department of theory and spectroscopy      #
                  #               Directorship: Frank Neese             #
                  #        Max Planck Institute fuer Kohlenforschung    #
                  #                Kaiser Wilhelm Platz 1               #
                  #                 D-45470 Muelheim/Ruhr               #
                  #                      Germany                        #
                  #                                                     #
                  #                  All rights reserved                #
                  #                        -***-                        #
                  #######################################################


                         Program Version 4.2.0 -  RELEASE  -


 With contributions from (in alphabetic order):
   Daniel Aravena         : Magnetic Suceptibility
   Michael Atanasov       : Ab Initio Ligand Field Theory (pilot matlab implementation)
   Alexander A. Auer      : GIAO ZORA, VPT2
   Ute Becker             : Parallelization
   Giovanni Bistoni       : ED, misc. LED, open-shell LED, HFLED
   Martin Brehm           : Molecular dynamics
   Dmytro Bykov           : SCF Hessian
   Vijay G. Chilkuri      : MRCI spin determinant printing, contributions to CSF-ICE
   Dipayan Datta          : RHF DLPNO-CCSD density
   Achintya Kumar Dutta   : EOM-CC, STEOM-CC
   Dmitry Ganyushin       : Spin-Orbit,Spin-Spin,Magnetic field MRCI
   Miquel Garcia          : C-PCM Hessian, Gaussian charge scheme
   Yang Guo               : DLPNO-NEVPT2, CIM, IAO-localization
   Andreas Hansen         : Spin unrestricted coupled pair/coupled cluster methods
   Benjamin Helmich-Paris : CASSCF linear response (MC-RPA)
   Lee Huntington         : MR-EOM, pCC
   Robert Izsak           : Overlap fitted RIJCOSX, COSX-SCS-MP3, EOM
   Christian Kollmar      : KDIIS, OOCD, Brueckner-CCSD(T), CCSD density
   Simone Kossmann        : Meta GGA functionals, TD-DFT gradient, OOMP2, MP2 Hessian
   Martin Krupicka        : AUTO-CI
   Lucas Lang             : DCDCAS
   Dagmar Lenk            : GEPOL surface, SMD
   Dimitrios Liakos       : Extrapolation schemes; Compound Job, initial MDCI parallelization
   Dimitrios Manganas     : Further ROCIS development; embedding schemes
   Dimitrios Pantazis     : SARC Basis sets
   Taras Petrenko         : DFT Hessian,TD-DFT gradient, ASA, ECA, R-Raman, ABS, FL, XAS/XES, NRVS
   Peter Pinski           : DLPNO-MP2, DLPNO-MP2 Gradient
   Christoph Reimann      : Effective Core Potentials
   Marius Retegan         : Local ZFS, SOC
   Christoph Riplinger    : Optimizer, TS searches, QM/MM, DLPNO-CCSD(T), (RO)-DLPNO pert. Triples
   Tobias Risthaus        : Range-separated hybrids, TD-DFT gradient, RPA, STAB
   Michael Roemelt        : Original ROCIS implementation
   Masaaki Saitow         : Open-shell DLPNO-CCSD energy and density
   Barbara Sandhoefer     : DKH picture change effects
   Avijit Sen             : IP-ROCIS
   Kantharuban Sivalingam : CASSCF convergence, NEVPT2, FIC-MRCI
   Bernardo de Souza      : ESD, SOC TD-DFT
   Georgi Stoychev        : AutoAux, RI-MP2 NMR
   Willem Van den Heuvel  : Paramagnetic NMR
   Boris Wezisla          : Elementary symmetry handling
   Frank Wennmohs         : Technical directorship


 We gratefully acknowledge several colleagues who have allowed us to
 interface, adapt or use parts of their codes:
   Stefan Grimme, W. Hujo, H. Kruse,             : VdW corrections, initial TS optimization,
                  C. Bannwarth                     DFT functionals, gCP, sTDA/sTD-DF
   Ed Valeev, F. Pavosevic, A. Kumar             : LibInt (2-el integral package), F12 methods
   Garnet Chan, S. Sharma, J. Yang, R. Olivares  : DMRG
   Ulf Ekstrom                                   : XCFun DFT Library
   Mihaly Kallay                                 : mrcc  (arbitrary order and MRCC methods)
   Andreas Klamt, Michael Diedenhofen            : otool_cosmo (COSMO solvation model)
   Jiri Pittner, Ondrej Demel                    : Mk-CCSD
   Frank Weinhold                                : gennbo (NPA and NBO analysis)
   Christopher J. Cramer and Donald G. Truhlar   : smd solvation model
   Lars Goerigk                                  : TD-DFT with DH, B97 family of functionals
   V. Asgeirsson, H. Jonsson                     : NEB implementation
   FAccTs GmbH                                   : IRC, NEB, NEB-TS, Multilevel, MM, QM/MM, CI optimization
   S Lehtola, MJT Oliveira, MAL Marques          : LibXC Library


 Your calculation uses the libint2 library for the computation of 2-el integrals
 For citations please refer to: http://libint.valeyev.net

 Your ORCA version has been built with support for libXC version: 4.2.3
 For citations please refer to: https://tddft.org/programs/libxc/

 This ORCA versions uses:
   CBLAS   interface :  Fast vector & matrix operations
   LAPACKE interface :  Fast linear algebra routines
   SCALAPACK package :  Parallel linear algebra routines


----- Orbital basis set information -----
Your calculation utilizes the basis: 6-31G
   H-He, Li-Ne : W. J. Hehre, R. Ditchfield and J.A. Pople, J. Chem. Phys. 56, 2257 (1972).
                 Note: He and Ne are unpublished basis sets taken from the Gaussian program.
                 Note: Li and B from J. D. Dill and J. A. Pople, J. Chem. Phys. 62, 2921 (1975).
   Na - Ar     : M. M. Francl, W. J. Pietro, W. J. Hehre, J. S. Binkley, M. S. Gordon, 
                 D. J. DeFrees and J. A. Pople, J. Chem. Phys. 77, 3654 (1982).
   K - Zn      : V. A. Rassolov, J. A. Pople, M. A. Ratner, and T. L. Windus, J. Chem. Phys. 109, 1223 (1998).

================================================================================
                                        WARNINGS
                       Please study these warnings very carefully!
================================================================================


WARNING: Geometry Optimization
  ===> : Switching off AutoStart
         For restart on a previous wavefunction, please use MOREAD

INFO   : the flag for use of LIBINT has been found!

================================================================================
                                       INPUT FILE
================================================================================
NAME = project_8048/ensemble_45_105.inp
|  1> # Test redundant internal optimization
|  2> #
|  3> ! RKS B3LYP  Opt TightSCF SmallPrint
|  4> 
|  5> %basis
|  6>         Basis "6-31G"
|  7> end
|  8> 
|  9> %geom
| 10> Constraints
| 11> { D 4  0  15  12  45.0   C } # D for Dihedral angle
| 12> { D 0  15  12  16  105.0   C } # D for Dihedral angle
| 13> { D 0  4  3  2   C } # D for Dihedral angle
| 14> { D 4  3  2  1   C } # D for Dihedral angle
| 15> { D 3  2  1  0   C } # D for Dihedral angle
| 16> { D 2  1  0  4   C } # D for Dihedral angle
| 17> { D 1  0  4  3   C } # D for Dihedral angle
| 18> { D 16  20  19  18   C } # D for Dihedral angle
| 19> { D 20  19  18  17   C } # D for Dihedral angle
| 20> { D 19  18  17  16   C } # D for Dihedral angle
| 21> { D 18  17  16  20   C } # D for Dihedral angle
| 22> { D 17  16  20  19   C } # D for Dihedral angle
| 23> { D 15  12  16  20   C } # D for Dihedral angle
| 24> end
| 25> end
| 26> 
| 27> 
| 28> #%pal 
| 29> #nprocs 8
| 30> #end
| 31> 
| 32> * xyz 0 1
| 33> C  -21.048   26.222   46.251
| 34> C  -20.361   27.558   45.944
| 35> C  -20.329   28.222   47.341
| 36> C  -20.110   27.022   48.296
| 37> O  -20.473   25.807   47.535
| 38> H  -20.833   25.428   45.533
| 39> H  -19.344   27.382   45.576
| 40> H  -20.898   28.157   45.201
| 41> H  -19.543   28.978   47.434
| 42> H  -21.289   28.710   47.548
| 43> H  -20.733   27.082   49.195
| 44> H  -19.064   26.913   48.597
| 45> C  -23.065   27.161   47.638
| 46> H  -23.907   26.624   48.090
| 47> H  -22.258   27.222   48.379
| 48> O  -22.586   26.394   46.375
| 49> C  -23.525   28.611   47.321
| 50> C  -22.424   29.400   46.602
| 51> C  -22.560   28.876   45.152
| 52> C  -24.085   28.651   45.000
| 53> O  -24.641   28.599   46.369
| 54> H  -23.891   29.079   48.236
| 55> O  -22.731   30.921   46.665
| 56> H  -21.428   29.231   47.023
| 57> H  -22.165   29.576   44.408
| 58> H  -22.017   27.929   45.041
| 59> H  -24.322   27.717   44.479
| 60> H  -24.579   29.479   44.483
| 61> H  -23.726   31.114   46.247
| 62> *
| 63> 
| 64>                          ****END OF INPUT****
================================================================================

                       *****************************
                       * Geometry Optimization Run *
                       *****************************

Geometry optimization settings:
Update method            Update   .... BFGS
Choice of coordinates    CoordSys .... Z-matrix Internals
Initial Hessian          InHess   .... Almoef's Model

Convergence Tolerances:
Energy Change            TolE     ....  5.0000e-06 Eh
Max. Gradient            TolMAXG  ....  3.0000e-04 Eh/bohr
RMS Gradient             TolRMSG  ....  1.0000e-04 Eh/bohr
Max. Displacement        TolMAXD  ....  4.0000e-03 bohr
RMS Displacement         TolRMSD  ....  2.0000e-03 bohr
Strict Convergence                ....  False
------------------------------------------------------------------------------
                        ORCA OPTIMIZATION COORDINATE SETUP
------------------------------------------------------------------------------

The optimization will be done in new redundant internal coordinates
Making redundant internal coordinates   ...  (new redundants) done
Evaluating the initial hessian          ...  (Almloef) done
Evaluating the coordinates              ...  done
Calculating the B-matrix                .... done
Calculating the G-matrix                .... done
Diagonalizing the G-matrix              .... done
Imposing constraints:
 Iter   0:  RMS(Cart)=    0.0000411621 RMS(Int)=    0.0000742312
 Iter   1:  RMS(Cart)=    0.0000249517 RMS(Int)=    0.0000491802
 Iter   2:  RMS(Cart)=    0.0000166813 RMS(Int)=    0.0000354677
 Iter   3:  RMS(Cart)=    0.0000123073 RMS(Int)=    0.0000277890
 Iter   4:  RMS(Cart)=    0.0000097685 RMS(Int)=    0.0000233442
 Iter   5:  RMS(Cart)=    0.0000080973 RMS(Int)=    0.0000206425
 Iter   6:  RMS(Cart)=    0.0000068734 RMS(Int)=    0.0000188961
 Iter   7:  RMS(Cart)=    0.0000059164 RMS(Int)=    0.0000176905
 Iter   8:  RMS(Cart)=    0.0000051432 RMS(Int)=    0.0000168046
 Iter   9:  RMS(Cart)=    0.0000045093 RMS(Int)=    0.0000161164
 Iter  10:  RMS(Cart)=    0.0000039867 RMS(Int)=    0.0000155560
 Iter  11:  RMS(Cart)=    0.0000035549 RMS(Int)=    0.0000150811
 Iter  12:  RMS(Cart)=    0.0000031976 RMS(Int)=    0.0000146653
 Iter  13:  RMS(Cart)=    0.0000029018 RMS(Int)=    0.0000142915
 Iter  14:  RMS(Cart)=    0.0000026561 RMS(Int)=    0.0000139483
 Iter  15:  RMS(Cart)=    0.0000024515 RMS(Int)=    0.0000136282
 Iter  16:  RMS(Cart)=    0.0000022802 RMS(Int)=    0.0000133259
 Iter  17:  RMS(Cart)=    0.0000021359 RMS(Int)=    0.0000130378
 Iter  18:  RMS(Cart)=    0.0000020135 RMS(Int)=    0.0000127614
 Iter  19:  RMS(Cart)=    0.0000019088 RMS(Int)=    0.0000124948
 Iter  20:  RMS(Cart)=    0.0000018184 RMS(Int)=    0.0000122370
 Iter  21:  RMS(Cart)=    0.0000017396 RMS(Int)=    0.0000119868
 Iter  22:  RMS(Cart)=    0.0000016702 RMS(Int)=    0.0000117437
 Iter  23:  RMS(Cart)=    0.0000016085 RMS(Int)=    0.0000115070
 Iter  24:  RMS(Cart)=    0.0000015532 RMS(Int)=    0.0000112765
 Iter  25:  RMS(Cart)=    0.0000015030 RMS(Int)=    0.0000110519
 Iter  26:  RMS(Cart)=    0.0000014572 RMS(Int)=    0.0000108327
 Iter  27:  RMS(Cart)=    0.0000014150 RMS(Int)=    0.0000106189
 Iter  28:  RMS(Cart)=    0.0000013758 RMS(Int)=    0.0000104102
 Iter  29:  RMS(Cart)=    0.0000013392 RMS(Int)=    0.0000102065
 Iter  30:  RMS(Cart)=    0.0000013048 RMS(Int)=    0.0000100076
 Iter  31:  RMS(Cart)=    0.0000012723 RMS(Int)=    0.0000098134
 Iter  32:  RMS(Cart)=    0.0000012415 RMS(Int)=    0.0000096237
 Iter  33:  RMS(Cart)=    0.0000012120 RMS(Int)=    0.0000094385
 Iter  34:  RMS(Cart)=    0.0000011839 RMS(Int)=    0.0000092575
 Iter  35:  RMS(Cart)=    0.0000011569 RMS(Int)=    0.0000090807
 Iter  36:  RMS(Cart)=    0.0000011309 RMS(Int)=    0.0000089080
 Iter  37:  RMS(Cart)=    0.0000011059 RMS(Int)=    0.0000087392
 Iter  38:  RMS(Cart)=    0.0000010817 RMS(Int)=    0.0000085743
 Iter  39:  RMS(Cart)=    0.0000010582 RMS(Int)=    0.0000084131
 Iter  40:  RMS(Cart)=    0.0000010355 RMS(Int)=    0.0000082556
 Iter  41:  RMS(Cart)=    0.0000010135 RMS(Int)=    0.0000081017
 Iter  42:  RMS(Cart)=    0.0000009920 RMS(Int)=    0.0000079513
 Iter  43:  RMS(Cart)=    0.0000009712 RMS(Int)=    0.0000078042
 Iter  44:  RMS(Cart)=    0.0000009509 RMS(Int)=    0.0000076604
 Iter  45:  RMS(Cart)=    0.0000009312 RMS(Int)=    0.0000075199
 Iter  46:  RMS(Cart)=    0.0000009119 RMS(Int)=    0.0000073825
 Iter  47:  RMS(Cart)=    0.0000008932 RMS(Int)=    0.0000072481
 Iter  48:  RMS(Cart)=    0.0000008749 RMS(Int)=    0.0000071167
 Iter  49:  RMS(Cart)=    0.0000008570 RMS(Int)=    0.0000069882
 Iter  50:  RMS(Cart)=    0.0000008396 RMS(Int)=    0.0000068625
 Iter  51:  RMS(Cart)=    0.0000008226 RMS(Int)=    0.0000067396
 Iter  52:  RMS(Cart)=    0.0000008060 RMS(Int)=    0.0000066194
 Iter  53:  RMS(Cart)=    0.0000007898 RMS(Int)=    0.0000065018
 Iter  54:  RMS(Cart)=    0.0000007740 RMS(Int)=    0.0000063868
 Iter  55:  RMS(Cart)=    0.0000007585 RMS(Int)=    0.0000062742
 Iter  56:  RMS(Cart)=    0.0000007434 RMS(Int)=    0.0000061641
 Iter  57:  RMS(Cart)=    0.0000007286 RMS(Int)=    0.0000060563
 Iter  58:  RMS(Cart)=    0.0000007142 RMS(Int)=    0.0000059508
 Iter  59:  RMS(Cart)=    0.0000007001 RMS(Int)=    0.0000058476
 Iter  60:  RMS(Cart)=    0.0000006863 RMS(Int)=    0.0000057466
 Iter  61:  RMS(Cart)=    0.0000006728 RMS(Int)=    0.0000056477
 Iter  62:  RMS(Cart)=    0.0000006597 RMS(Int)=    0.0000055510
 Iter  63:  RMS(Cart)=    0.0000006468 RMS(Int)=    0.0000054562
 Iter  64:  RMS(Cart)=    0.0000006342 RMS(Int)=    0.0000053634
 Iter  65:  RMS(Cart)=    0.0000006219 RMS(Int)=    0.0000052726
 Iter  66:  RMS(Cart)=    0.0000006098 RMS(Int)=    0.0000051837
 Iter  67:  RMS(Cart)=    0.0000005981 RMS(Int)=    0.0000050966
 Iter  68:  RMS(Cart)=    0.0000005865 RMS(Int)=    0.0000050113
 Iter  69:  RMS(Cart)=    0.0000005753 RMS(Int)=    0.0000049278
 Iter  70:  RMS(Cart)=    0.0000005643 RMS(Int)=    0.0000048460
 Iter  71:  RMS(Cart)=    0.0000005535 RMS(Int)=    0.0000047658
 Iter  72:  RMS(Cart)=    0.0000005430 RMS(Int)=    0.0000046873
 Iter  73:  RMS(Cart)=    0.0000005326 RMS(Int)=    0.0000046104
 Iter  74:  RMS(Cart)=    0.0000005226 RMS(Int)=    0.0000045350
 Iter  75:  RMS(Cart)=    0.0000005127 RMS(Int)=    0.0000044612
 Iter  76:  RMS(Cart)=    0.0000005030 RMS(Int)=    0.0000043888
 Iter  77:  RMS(Cart)=    0.0000004936 RMS(Int)=    0.0000043179
 Iter  78:  RMS(Cart)=    0.0000004844 RMS(Int)=    0.0000042484
 Iter  79:  RMS(Cart)=    0.0000004753 RMS(Int)=    0.0000041803
 Iter  80:  RMS(Cart)=    0.0000004665 RMS(Int)=    0.0000041135
 Iter  81:  RMS(Cart)=    0.0000004578 RMS(Int)=    0.0000040480
 Iter  82:  RMS(Cart)=    0.0000004493 RMS(Int)=    0.0000039839
 Iter  83:  RMS(Cart)=    0.0000004410 RMS(Int)=    0.0000039209
 Iter  84:  RMS(Cart)=    0.0000004329 RMS(Int)=    0.0000038592
 Iter  85:  RMS(Cart)=    0.0000004250 RMS(Int)=    0.0000037987
 Iter  86:  RMS(Cart)=    0.0000004172 RMS(Int)=    0.0000037394
 Iter  87:  RMS(Cart)=    0.0000004096 RMS(Int)=    0.0000036812
 Iter  88:  RMS(Cart)=    0.0000004021 RMS(Int)=    0.0000036241
 Iter  89:  RMS(Cart)=    0.0000003948 RMS(Int)=    0.0000035681
 Iter  90:  RMS(Cart)=    0.0000003877 RMS(Int)=    0.0000035132
 Iter  91:  RMS(Cart)=    0.0000003807 RMS(Int)=    0.0000034593
 Iter  92:  RMS(Cart)=    0.0000003738 RMS(Int)=    0.0000034064
 Iter  93:  RMS(Cart)=    0.0000003671 RMS(Int)=    0.0000033545
 Iter  94:  RMS(Cart)=    0.0000003605 RMS(Int)=    0.0000033036
 Iter  95:  RMS(Cart)=    0.0000003541 RMS(Int)=    0.0000032536
 Iter  96:  RMS(Cart)=    0.0000003478 RMS(Int)=    0.0000032046
 Iter  97:  RMS(Cart)=    0.0000003416 RMS(Int)=    0.0000031565
 Iter  98:  RMS(Cart)=    0.0000003356 RMS(Int)=    0.0000031092
 Iter  99:  RMS(Cart)=    0.0000003297 RMS(Int)=    0.0000030628
 RMS(Cart) too big - taking linear step, building new B-matrix and trying again
Imposing constraints:
 Iter   0:  RMS(Cart)=    0.0000249518 RMS(Int)=    0.0000491806
 Iter   1:  RMS(Cart)=    0.0000166809 RMS(Int)=    0.0000354682
 Iter   2:  RMS(Cart)=    0.0000123069 RMS(Int)=    0.0000277894
 Iter   3:  RMS(Cart)=    0.0000097681 RMS(Int)=    0.0000233446
 Iter   4:  RMS(Cart)=    0.0000080970 RMS(Int)=    0.0000206428
 Iter   5:  RMS(Cart)=    0.0000068731 RMS(Int)=    0.0000188963
 Iter   6:  RMS(Cart)=    0.0000059162 RMS(Int)=    0.0000176907
 Iter   7:  RMS(Cart)=    0.0000051430 RMS(Int)=    0.0000168048
 Iter   8:  RMS(Cart)=    0.0000045092 RMS(Int)=    0.0000161166
 Iter   9:  RMS(Cart)=    0.0000039866 RMS(Int)=    0.0000155562
 Iter  10:  RMS(Cart)=    0.0000035548 RMS(Int)=    0.0000150813
 Iter  11:  RMS(Cart)=    0.0000031976 RMS(Int)=    0.0000146654
 Iter  12:  RMS(Cart)=    0.0000029017 RMS(Int)=    0.0000142916
 Iter  13:  RMS(Cart)=    0.0000026561 RMS(Int)=    0.0000139484
 Iter  14:  RMS(Cart)=    0.0000024515 RMS(Int)=    0.0000136283
 Iter  15:  RMS(Cart)=    0.0000022802 RMS(Int)=    0.0000133260
 Iter  16:  RMS(Cart)=    0.0000021359 RMS(Int)=    0.0000130378
 Iter  17:  RMS(Cart)=    0.0000020135 RMS(Int)=    0.0000127614
 Iter  18:  RMS(Cart)=    0.0000019088 RMS(Int)=    0.0000124949
 Iter  19:  RMS(Cart)=    0.0000018184 RMS(Int)=    0.0000122370
 Iter  20:  RMS(Cart)=    0.0000017396 RMS(Int)=    0.0000119868
 Iter  21:  RMS(Cart)=    0.0000016702 RMS(Int)=    0.0000117437
 Iter  22:  RMS(Cart)=    0.0000016085 RMS(Int)=    0.0000115070
 Iter  23:  RMS(Cart)=    0.0000015532 RMS(Int)=    0.0000112765
 Iter  24:  RMS(Cart)=    0.0000015030 RMS(Int)=    0.0000110518
 Iter  25:  RMS(Cart)=    0.0000014572 RMS(Int)=    0.0000108327
 Iter  26:  RMS(Cart)=    0.0000014150 RMS(Int)=    0.0000106189
 Iter  27:  RMS(Cart)=    0.0000013758 RMS(Int)=    0.0000104102
 Iter  28:  RMS(Cart)=    0.0000013392 RMS(Int)=    0.0000102065
 Iter  29:  RMS(Cart)=    0.0000013048 RMS(Int)=    0.0000100076
 Iter  30:  RMS(Cart)=    0.0000012723 RMS(Int)=    0.0000098133
 Iter  31:  RMS(Cart)=    0.0000012415 RMS(Int)=    0.0000096236
 Iter  32:  RMS(Cart)=    0.0000012121 RMS(Int)=    0.0000094384
 Iter  33:  RMS(Cart)=    0.0000011839 RMS(Int)=    0.0000092574
 Iter  34:  RMS(Cart)=    0.0000011569 RMS(Int)=    0.0000090806
 Iter  35:  RMS(Cart)=    0.0000011309 RMS(Int)=    0.0000089079
 Iter  36:  RMS(Cart)=    0.0000011059 RMS(Int)=    0.0000087391
 Iter  37:  RMS(Cart)=    0.0000010817 RMS(Int)=    0.0000085742
 Iter  38:  RMS(Cart)=    0.0000010582 RMS(Int)=    0.0000084130
 Iter  39:  RMS(Cart)=    0.0000010355 RMS(Int)=    0.0000082555
 Iter  40:  RMS(Cart)=    0.0000010135 RMS(Int)=    0.0000081016
 Iter  41:  RMS(Cart)=    0.0000009920 RMS(Int)=    0.0000079511
 Iter  42:  RMS(Cart)=    0.0000009712 RMS(Int)=    0.0000078041
 Iter  43:  RMS(Cart)=    0.0000009509 RMS(Int)=    0.0000076603
 Iter  44:  RMS(Cart)=    0.0000009312 RMS(Int)=    0.0000075197
 Iter  45:  RMS(Cart)=    0.0000009119 RMS(Int)=    0.0000073823
 Iter  46:  RMS(Cart)=    0.0000008932 RMS(Int)=    0.0000072480
 Iter  47:  RMS(Cart)=    0.0000008749 RMS(Int)=    0.0000071166
 Iter  48:  RMS(Cart)=    0.0000008571 RMS(Int)=    0.0000069881
 Iter  49:  RMS(Cart)=    0.0000008396 RMS(Int)=    0.0000068624
 Iter  50:  RMS(Cart)=    0.0000008226 RMS(Int)=    0.0000067395
 Iter  51:  RMS(Cart)=    0.0000008060 RMS(Int)=    0.0000066193
 Iter  52:  RMS(Cart)=    0.0000007898 RMS(Int)=    0.0000065017
 Iter  53:  RMS(Cart)=    0.0000007740 RMS(Int)=    0.0000063866
 Iter  54:  RMS(Cart)=    0.0000007585 RMS(Int)=    0.0000062740
 Iter  55:  RMS(Cart)=    0.0000007434 RMS(Int)=    0.0000061639
 Iter  56:  RMS(Cart)=    0.0000007286 RMS(Int)=    0.0000060561
 Iter  57:  RMS(Cart)=    0.0000007142 RMS(Int)=    0.0000059507
 Iter  58:  RMS(Cart)=    0.0000007001 RMS(Int)=    0.0000058475
 Iter  59:  RMS(Cart)=    0.0000006863 RMS(Int)=    0.0000057464
 Iter  60:  RMS(Cart)=    0.0000006728 RMS(Int)=    0.0000056476
 Iter  61:  RMS(Cart)=    0.0000006597 RMS(Int)=    0.0000055508
 Iter  62:  RMS(Cart)=    0.0000006468 RMS(Int)=    0.0000054560
 Iter  63:  RMS(Cart)=    0.0000006342 RMS(Int)=    0.0000053633
 Iter  64:  RMS(Cart)=    0.0000006219 RMS(Int)=    0.0000052725
 Iter  65:  RMS(Cart)=    0.0000006098 RMS(Int)=    0.0000051835
 Iter  66:  RMS(Cart)=    0.0000005981 RMS(Int)=    0.0000050964
 Iter  67:  RMS(Cart)=    0.0000005865 RMS(Int)=    0.0000050112
 Iter  68:  RMS(Cart)=    0.0000005753 RMS(Int)=    0.0000049276
 Iter  69:  RMS(Cart)=    0.0000005643 RMS(Int)=    0.0000048458
 Iter  70:  RMS(Cart)=    0.0000005535 RMS(Int)=    0.0000047657
 Iter  71:  RMS(Cart)=    0.0000005430 RMS(Int)=    0.0000046872
 Iter  72:  RMS(Cart)=    0.0000005326 RMS(Int)=    0.0000046102
 Iter  73:  RMS(Cart)=    0.0000005226 RMS(Int)=    0.0000045349
 Iter  74:  RMS(Cart)=    0.0000005127 RMS(Int)=    0.0000044610
 Iter  75:  RMS(Cart)=    0.0000005030 RMS(Int)=    0.0000043887
 Iter  76:  RMS(Cart)=    0.0000004936 RMS(Int)=    0.0000043178
 Iter  77:  RMS(Cart)=    0.0000004844 RMS(Int)=    0.0000042482
 Iter  78:  RMS(Cart)=    0.0000004753 RMS(Int)=    0.0000041801
 Iter  79:  RMS(Cart)=    0.0000004665 RMS(Int)=    0.0000041133
 Iter  80:  RMS(Cart)=    0.0000004578 RMS(Int)=    0.0000040479
 Iter  81:  RMS(Cart)=    0.0000004493 RMS(Int)=    0.0000039837
 Iter  82:  RMS(Cart)=    0.0000004410 RMS(Int)=    0.0000039208
 Iter  83:  RMS(Cart)=    0.0000004329 RMS(Int)=    0.0000038591
 Iter  84:  RMS(Cart)=    0.0000004250 RMS(Int)=    0.0000037986
 Iter  85:  RMS(Cart)=    0.0000004172 RMS(Int)=    0.0000037392
 Iter  86:  RMS(Cart)=    0.0000004096 RMS(Int)=    0.0000036810
 Iter  87:  RMS(Cart)=    0.0000004021 RMS(Int)=    0.0000036239
 Iter  88:  RMS(Cart)=    0.0000003948 RMS(Int)=    0.0000035679
 Iter  89:  RMS(Cart)=    0.0000003877 RMS(Int)=    0.0000035130
 Iter  90:  RMS(Cart)=    0.0000003807 RMS(Int)=    0.0000034591
 Iter  91:  RMS(Cart)=    0.0000003738 RMS(Int)=    0.0000034062
 Iter  92:  RMS(Cart)=    0.0000003671 RMS(Int)=    0.0000033544
 Iter  93:  RMS(Cart)=    0.0000003605 RMS(Int)=    0.0000033034
 Iter  94:  RMS(Cart)=    0.0000003541 RMS(Int)=    0.0000032535
 Iter  95:  RMS(Cart)=    0.0000003478 RMS(Int)=    0.0000032044
 Iter  96:  RMS(Cart)=    0.0000003416 RMS(Int)=    0.0000031563
 Iter  97:  RMS(Cart)=    0.0000003356 RMS(Int)=    0.0000031091
 Iter  98:  RMS(Cart)=    0.0000003297 RMS(Int)=    0.0000030627
 Iter  99:  RMS(Cart)=    0.0000003239 RMS(Int)=    0.0000030172
 RMS(Cart) too big - taking linear step, building new B-matrix and trying again
Imposing constraints:
 Iter   0:  RMS(Cart)=    0.0000166807 RMS(Int)=    0.0000354682
 Iter   1:  RMS(Cart)=    0.0000123066 RMS(Int)=    0.0000277896
 Iter   2:  RMS(Cart)=    0.0000097678 RMS(Int)=    0.0000233447
 Iter   3:  RMS(Cart)=    0.0000080968 RMS(Int)=    0.0000206429
 Iter   4:  RMS(Cart)=    0.0000068730 RMS(Int)=    0.0000188964
 Iter   5:  RMS(Cart)=    0.0000059161 RMS(Int)=    0.0000176908
 Iter   6:  RMS(Cart)=    0.0000051429 RMS(Int)=    0.0000168048
 Iter   7:  RMS(Cart)=    0.0000045091 RMS(Int)=    0.0000161167
 Iter   8:  RMS(Cart)=    0.0000039865 RMS(Int)=    0.0000155563
 Iter   9:  RMS(Cart)=    0.0000035547 RMS(Int)=    0.0000150813
 Iter  10:  RMS(Cart)=    0.0000031976 RMS(Int)=    0.0000146655
 Iter  11:  RMS(Cart)=    0.0000029017 RMS(Int)=    0.0000142916
 Iter  12:  RMS(Cart)=    0.0000026561 RMS(Int)=    0.0000139484
 Iter  13:  RMS(Cart)=    0.0000024514 RMS(Int)=    0.0000136283
 Iter  14:  RMS(Cart)=    0.0000022802 RMS(Int)=    0.0000133260
 Iter  15:  RMS(Cart)=    0.0000021359 RMS(Int)=    0.0000130379
 Iter  16:  RMS(Cart)=    0.0000020135 RMS(Int)=    0.0000127614
 Iter  17:  RMS(Cart)=    0.0000019088 RMS(Int)=    0.0000124949
 Iter  18:  RMS(Cart)=    0.0000018184 RMS(Int)=    0.0000122370
 Iter  19:  RMS(Cart)=    0.0000017396 RMS(Int)=    0.0000119868
 Iter  20:  RMS(Cart)=    0.0000016702 RMS(Int)=    0.0000117437
 Iter  21:  RMS(Cart)=    0.0000016085 RMS(Int)=    0.0000115070
 Iter  22:  RMS(Cart)=    0.0000015532 RMS(Int)=    0.0000112765
 Iter  23:  RMS(Cart)=    0.0000015030 RMS(Int)=    0.0000110518
 Iter  24:  RMS(Cart)=    0.0000014572 RMS(Int)=    0.0000108327
 Iter  25:  RMS(Cart)=    0.0000014150 RMS(Int)=    0.0000106188
 Iter  26:  RMS(Cart)=    0.0000013758 RMS(Int)=    0.0000104101
 Iter  27:  RMS(Cart)=    0.0000013392 RMS(Int)=    0.0000102064
 Iter  28:  RMS(Cart)=    0.0000013048 RMS(Int)=    0.0000100075
 Iter  29:  RMS(Cart)=    0.0000012723 RMS(Int)=    0.0000098133
CONVERGED
Small eigenvalue found = 2.053e-02
The first mode is                       ....  101
The number of degrees of freedom        ....   81
Storing new coordinates                 .... done

    -----------------------------------------------------------------
                    Redundant Internal Coordinates


    -----------------------------------------------------------------
         Definition                    Initial Value    Approx d2E/dq
    -----------------------------------------------------------------
      1. B(C   1,C   0)                  1.5333         0.369027   
      2. B(C   2,C   1)                  1.5471         0.350825   
      3. B(C   3,C   2)                  1.5492         0.348147   
      4. B(O   4,C   0)                  1.4668         0.422031   
      5. B(O   4,C   3)                  1.4789         0.403699   
      6. B(H   5,C   0)                  1.0919         0.357632   
      7. B(H   6,C   1)                  1.0958         0.352561   
      8. B(H   7,C   1)                  1.0951         0.353431   
      9. B(H   8,C   2)                  1.0945         0.354166   
     10. B(H   9,C   2)                  1.0966         0.351438   
     11. B(H  10,C   3)                  1.0954         0.353010   
     12. B(H  11,C   3)                  1.0939         0.354989   
     13. B(H  13,C  12)                  1.0962         0.352001   
     14. B(H  14,C  12)                  1.0973         0.350581   
     15. B(O  15,C   0)                  1.5525         0.307993   
     16. B(O  15,C  12)                  1.5534         0.307086   
     17. B(C  16,C  12)                  1.5539         0.342180   
     18. B(C  17,C  16)                  1.5335         0.368775   
     19. B(C  18,C  17)                  1.5478         0.349975   
     20. B(C  19,C  18)                  1.5490         0.348408   
     21. B(O  20,C  16)                  1.4669         0.421820   
     22. B(O  20,C  19)                  1.4785         0.404258   
     23. B(H  21,C  16)                  1.0910         0.358825   
     24. B(O  22,C  17)                  1.5530         0.307536   
     25. B(H  23,H   9)                  0.7526         0.238121   
     26. B(H  23,C  17)                  1.0945         0.354263   
     27. B(H  24,C  18)                  1.0952         0.353228   
     28. B(H  25,C  18)                  1.0973         0.350623   
     29. B(H  26,C  19)                  1.0954         0.352988   
     30. B(H  27,C  19)                  1.0940         0.354804   
     31. B(H  28,O  22)                  1.0964         0.315078   
     32. A(C   1,C   0,O   4)          104.2576         0.367935   
     33. A(H   5,C   0,O  15)          109.1530         0.312058   
     34. A(C   1,C   0,H   5)          114.4402         0.323302   
     35. A(O   4,C   0,H   5)          107.0127         0.328541   
     36. A(O   4,C   0,O  15)          110.4677         0.354548   
     37. A(C   1,C   0,O  15)          111.3092         0.348740   
     38. A(C   2,C   1,H   6)          110.6716         0.319888   
     39. A(C   0,C   1,H   6)          110.0677         0.322546   
     40. A(C   2,C   1,H   7)          112.8335         0.320016   
     41. A(C   0,C   1,H   7)          113.1266         0.322677   
     42. A(H   6,C   1,H   7)          108.3674         0.289027   
     43. A(C   0,C   1,C   2)          101.6756         0.358729   
     44. A(C   1,C   2,C   3)          103.1310         0.355196   
     45. A(C   1,C   2,H   8)          112.8305         0.320125   
     46. A(C   1,C   2,H   9)          110.0757         0.319721   
     47. A(C   3,C   2,H   8)          112.4029         0.319725   
     48. A(C   3,C   2,H   9)          110.6168         0.319321   
     49. A(H   8,C   2,H   9)          107.7735         0.288977   
     50. A(O   4,C   3,H  10)          109.1297         0.325449   
     51. A(C   2,C   3,H  11)          112.4572         0.319846   
     52. A(O   4,C   3,H  11)          107.1246         0.325748   
     53. A(C   2,C   3,O   4)          106.5263         0.361529   
     54. A(C   2,C   3,H  10)          112.5252         0.319554   
     55. A(H  10,C   3,H  11)          108.8727         0.289284   
     56. A(C   0,O   4,C   3)          108.3070         0.371320   
     57. A(C   2,H   9,H  23)          109.7586         0.235162   
     58. A(H  14,C  12,C  16)          107.6698         0.318295   
     59. A(H  13,C  12,O  15)          109.2795         0.311109   
     60. A(H  14,C  12,O  15)          110.4702         0.310906   
     61. A(H  13,C  12,H  14)          108.2824         0.288589   
     62. A(H  13,C  12,C  16)          108.2925         0.318505   
     63. A(O  15,C  12,C  16)          112.7240         0.344167   
     64. A(C   0,O  15,C  12)          115.1570         0.336110   
     65. A(C  12,C  16,O  20)          110.4884         0.363176   
     66. A(C  17,C  16,O  20)          104.2516         0.367861   
     67. A(C  12,C  16,H  21)          109.1796         0.319505   
     68. A(C  17,C  16,H  21)          114.4173         0.323443   
     69. A(C  12,C  16,C  17)          111.2931         0.357168   
     70. A(O  20,C  16,H  21)          107.0109         0.328695   
     71. A(C  16,C  17,C  18)          101.6512         0.358539   
     72. A(C  16,C  17,O  22)          110.0581         0.348613   
     73. A(C  18,C  17,O  22)          110.6230         0.345557   
     74. A(C  16,C  17,H  23)          113.1751         0.322765   
     75. A(C  18,C  17,H  23)          112.8362         0.320013   
     76. A(O  22,C  17,H  23)          108.3934         0.311505   
     77. A(C  17,C  18,C  19)          103.1574         0.355095   
     78. A(C  17,C  18,H  24)          112.8501         0.319860   
     79. A(C  19,C  18,H  24)          112.4112         0.319625   
     80. A(C  17,C  18,H  25)          110.0888         0.319473   
     81. A(C  19,C  18,H  25)          110.6037         0.319239   
     82. A(H  24,C  18,H  25)          107.7228         0.288752   
     83. A(H  26,C  19,H  27)          108.8354         0.289258   
     84. A(C  18,C  19,O  20)          106.5274         0.361661   
     85. A(C  18,C  19,H  26)          112.5521         0.319590   
     86. A(O  20,C  19,H  26)          109.2104         0.325519   
     87. A(C  18,C  19,H  27)          112.3950         0.319858   
     88. A(O  20,C  19,H  27)          107.1202         0.325794   
     89. A(C  16,O  20,C  19)          108.3300         0.371377   
     90. A(C  17,O  22,H  28)          109.6553         0.303155   
     91. A(H   9,H  23,C  17)          122.9096         0.235427   
     92. D(C   2,C   1,C   0,O   4)    -40.0156         0.010890 C 
     93. D(H   6,C   1,C   0,O  15)   -163.5728         0.010890   
     94. D(C   2,C   1,C   0,O  15)     79.0879         0.010890   
     95. D(H   6,C   1,C   0,O   4)     77.3236         0.010890   
     96. D(H   7,C   1,C   0,O  15)    -42.1863         0.010890   
     97. D(H   7,C   1,C   0,O   4)   -161.2898         0.010890   
     98. D(C   2,C   1,C   0,H   5)   -156.5721         0.010890   
     99. D(H   6,C   1,C   0,H   5)    -39.2328         0.010890   
    100. D(H   7,C   1,C   0,H   5)     82.1538         0.010890   
    101. D(H   9,C   2,C   1,C   0)    -83.0226         0.009912   
    102. D(C   3,C   2,C   1,C   0)     35.0256         0.009912 C 
    103. D(C   3,C   2,C   1,H   7)    156.5037         0.009912   
    104. D(H   8,C   2,C   1,C   0)    156.5474         0.009912   
    105. D(H   9,C   2,C   1,H   6)    160.0759         0.009912   
    106. D(H   8,C   2,C   1,H   6)     39.6459         0.009912   
    107. D(C   3,C   2,C   1,H   6)    -81.8758         0.009912   
    108. D(H   8,C   2,C   1,H   7)    -81.9746         0.009912   
    109. D(H   9,C   2,C   1,H   7)     38.4554         0.009912   
    110. D(O   4,C   3,C   2,C   1)    -18.1968         0.009774 C 
    111. D(H  10,C   3,C   2,H   9)    -20.0737         0.009774   
    112. D(H  11,C   3,C   2,C   1)     98.8673         0.009774   
    113. D(H  10,C   3,C   2,C   1)   -137.7424         0.009774   
    114. D(O   4,C   3,C   2,H   9)     99.4719         0.009774   
    115. D(H  11,C   3,C   2,H   8)    -22.9433         0.009774   
    116. D(H  10,C   3,C   2,H   8)    100.4470         0.009774   
    117. D(O   4,C   3,C   2,H   8)   -140.0074         0.009774   
    118. D(H  11,C   3,C   2,H   9)   -143.4641         0.009774   
    119. D(C   3,O   4,C   0,H   5)    151.2052         0.014035   
    120. D(C   3,O   4,C   0,C   1)     29.5922         0.014035 C 
    121. D(C   0,O   4,C   3,C   2)     -6.8723         0.012866 C 
    122. D(C   3,O   4,C   0,O  15)    -90.0815         0.014035   
    123. D(C   0,O   4,C   3,H  10)    114.8547         0.012866   
    124. D(C   0,O   4,C   3,H  11)   -127.4269         0.012866   
    125. D(H  23,H   9,C   2,C   1)    -59.1895         0.114489   
    126. D(H  23,H   9,C   2,C   3)   -172.5127         0.114489   
    127. D(H  23,H   9,C   2,H   8)     64.2437         0.114489   
    128. D(C  12,O  15,C   0,C   1)    -70.3258         0.007793   
    129. D(C  12,O  15,C   0,H   5)    162.4018         0.007793   
    130. D(C  12,O  15,C   0,O   4)     44.9996         0.007793 C 
    131. D(C   0,O  15,C  12,H  14)    -15.5036         0.007753   
    132. D(C   0,O  15,C  12,H  13)   -134.5366         0.007753   
    133. D(C   0,O  15,C  12,C  16)    104.9997         0.007753 C 
    134. D(C  17,C  16,C  12,H  13)   -176.3656         0.009469   
    135. D(C  17,C  16,C  12,H  14)     66.7583         0.009469   
    136. D(C  17,C  16,C  12,O  15)    -55.3375         0.009469   
    137. D(O  20,C  16,C  12,H  13)    -61.0446         0.009469   
    138. D(O  20,C  16,C  12,H  14)   -177.9207         0.009469   
    139. D(O  20,C  16,C  12,O  15)     59.9835         0.009469 C 
    140. D(H  21,C  16,C  12,H  13)     56.3834         0.009469   
    141. D(H  21,C  16,C  12,H  14)    -60.4927         0.009469   
    142. D(H  21,C  16,C  12,O  15)    177.4115         0.009469   
    143. D(C  18,C  17,C  16,C  12)     79.1283         0.010876   
    144. D(H  23,C  17,C  16,O  20)   -161.2745         0.010876   
    145. D(C  18,C  17,C  16,H  21)   -156.5268         0.010876   
    146. D(O  22,C  17,C  16,C  12)   -163.6046         0.010876   
    147. D(O  22,C  17,C  16,O  20)     77.2790         0.010876   
    148. D(O  22,C  17,C  16,H  21)    -39.2598         0.010876   
    149. D(C  18,C  17,C  16,O  20)    -39.9880         0.010876 C 
    150. D(H  23,C  17,C  16,C  12)    -42.1582         0.010876   
    151. D(H  23,C  17,C  16,H  21)     82.1867         0.010876   
    152. D(C  19,C  18,C  17,C  16)     34.9656         0.009868 C 
    153. D(C  19,C  18,C  17,O  22)    -81.8915         0.009868   
    154. D(C  19,C  18,C  17,H  23)    156.4877         0.009868   
    155. D(H  24,C  18,C  17,C  16)    156.5246         0.009868   
    156. D(H  24,C  18,C  17,O  22)     39.6674         0.009868   
    157. D(H  24,C  18,C  17,H  23)    -81.9533         0.009868   
    158. D(H  25,C  18,C  17,C  16)    -83.0877         0.009868   
    159. D(H  25,C  18,C  17,O  22)    160.0551         0.009868   
    160. D(H  25,C  18,C  17,H  23)     38.4344         0.009868   
    161. D(O  20,C  19,C  18,C  17)    -18.1152         0.009787 C 
    162. D(O  20,C  19,C  18,H  24)   -139.9704         0.009787   
    163. D(O  20,C  19,C  18,H  25)     99.5771         0.009787   
    164. D(H  26,C  19,C  18,C  17)   -137.7760         0.009787   
    165. D(H  26,C  19,C  18,H  24)    100.3688         0.009787   
    166. D(H  26,C  19,C  18,H  25)    -20.0837         0.009787   
    167. D(H  27,C  19,C  18,C  17)     98.9103         0.009787   
    168. D(H  27,C  19,C  18,H  24)    -22.9449         0.009787   
    169. D(H  27,C  19,C  18,H  25)   -143.3974         0.009787   
    170. D(C  19,O  20,C  16,C  12)    -90.0177         0.014021   
    171. D(C  19,O  20,C  16,C  17)     29.6440         0.014021 C 
    172. D(C  19,O  20,C  16,H  21)    151.2266         0.014021   
    173. D(C  16,O  20,C  19,C  18)     -6.9527         0.012900 C 
    174. D(C  16,O  20,C  19,H  26)    114.8526         0.012900   
    175. D(C  16,O  20,C  19,H  27)   -127.4327         0.012900   
    176. D(H  28,O  22,C  17,C  16)    -55.7702         0.007773   
    177. D(H  28,O  22,C  17,C  18)     55.7680         0.007773   
    178. D(H  28,O  22,C  17,H  23)    179.9717         0.007773   
    179. D(C  17,H  23,H   9,C   2)    140.4386         1.923819   
    180. D(H   9,H  23,C  17,C  16)      7.8797         0.116737   
    181. D(H   9,H  23,C  17,C  18)   -106.8686         0.116737   
    182. D(H   9,H  23,C  17,O  22)    130.2585         0.116737   
    -----------------------------------------------------------------

Number of atoms                         .... 29
Number of degrees of freedom            .... 182

Time needed for optimization step       :     3.80 sec

         *************************************************************
         *                GEOMETRY OPTIMIZATION CYCLE   1            *
         *************************************************************
---------------------------------
CARTESIAN COORDINATES (ANGSTROEM)
---------------------------------
  C    -21.047923   26.222106   46.250989
  C    -20.360963   27.558089   45.944052
  C    -20.328988   28.221922   47.341073
  C    -20.109998   27.021860   48.296048
  O    -20.472992   25.806863   47.534945
  H    -20.832923   25.428120   45.532974
  H    -19.343964   27.382115   45.576038
  H    -20.897953   28.157149   45.201093
  H    -19.542994   28.977920   47.434140
  H    -21.289024   28.709917   47.548027
  H    -20.733031   27.081814   49.195028
  H    -19.064009   26.912853   48.597083
  C    -23.064922   27.161113   47.637957
  H    -23.906852   26.624072   48.090040
  H    -22.257889   27.222261   48.378909
  O    -22.585917   26.393930   46.375042
  C    -23.525011   28.611043   47.320955
  C    -22.424026   29.399988   46.601940
  C    -22.560085   28.875963   45.151962
  C    -24.085101   28.650989   44.999999
  O    -24.641071   28.599031   46.369026
  H    -23.890978   29.079068   48.235955
  O    -22.730980   30.920999   46.664908
  H    -21.428001   29.230957   47.022981
  H    -22.165079   29.575934   44.407939
  H    -22.017119   27.928942   45.040971
  H    -24.322128   27.716980   44.479026
  H    -24.579100   29.478984   44.482990
  H    -23.725977   31.114020   46.246910

----------------------------
CARTESIAN COORDINATES (A.U.)
----------------------------
  NO LB      ZA    FRAG     MASS         X           Y           Z
   0 C     6.0000    0    12.011  -39.774811   49.552599   87.401702
   1 C     6.0000    0    12.011  -38.476645   52.077241   86.821676
   2 C     6.0000    0    12.011  -38.416220   53.331703   89.461663
   3 C     6.0000    0    12.011  -38.002389   51.063915   91.266304
   4 O     8.0000    0    15.999  -38.688348   48.767903   89.828029
   5 H     1.0000    0     1.008  -39.368519   48.052183   86.044850
   6 H     1.0000    0     1.008  -36.554794   51.744699   86.126229
   7 H     1.0000    0     1.008  -39.491408   53.209300   85.417686
   8 H     1.0000    0     1.008  -36.930907   54.760333   89.637533
   9 H     1.0000    0     1.008  -40.230426   54.253880   89.852749
  10 H     1.0000    0     1.008  -39.179751   51.177211   92.965131
  11 H     1.0000    0     1.008  -36.025756   50.857921   91.835177
  12 C     6.0000    0    12.011  -43.586386   51.327065   90.022692
  13 H     1.0000    0     1.008  -45.177403   50.312205   90.877005
  14 H     1.0000    0     1.008  -42.061315   51.442617   91.422889
  15 O     8.0000    0    15.999  -42.681198   49.877299   87.636129
  16 C     6.0000    0    12.011  -44.455828   54.067036   89.423645
  17 C     6.0000    0    12.011  -42.375268   55.557926   88.064904
  18 C     6.0000    0    12.011  -42.632381   54.567661   85.324843
  19 C     6.0000    0    12.011  -45.514245   54.142522   85.037673
  20 O     8.0000    0    15.999  -46.564875   54.044336   87.624761
  21 H     1.0000    0     1.008  -45.147406   54.951475   91.152745
  22 O     8.0000    0    15.999  -42.955327   58.432220   88.183896
  23 H     1.0000    0     1.008  -40.493054   55.238503   88.860557
  24 H     1.0000    0     1.008  -41.885928   55.890416   83.918842
  25 H     1.0000    0     1.008  -41.606325   52.778051   85.115101
  26 H     1.0000    0     1.008  -45.962162   52.377502   84.053178
  27 H     1.0000    0     1.008  -46.447767   55.707207   84.060669
  28 H     1.0000    0     1.008  -44.835598   58.796976   87.393994

--------------------------------
INTERNAL COORDINATES (ANGSTROEM)
--------------------------------
 C      0   0   0     0.000000000000     0.00000000     0.00000000
 C      1   0   0     1.533334275362     0.00000000     0.00000000
 C      2   1   0     1.547103422529   101.67907390     0.00000000
 C      3   2   1     1.549188819996   103.12737509    35.02687180
 O      1   2   3     1.466801281701   104.24948604   319.98542309
 H      1   2   3     1.091872245274   114.43876658   203.42640133
 H      2   1   3     1.095759553917   110.06782188   117.34000099
 H      2   1   3     1.095088580892   113.12442239   238.72597460
 H      3   2   1     1.094523183857   112.83161078   156.54780790
 H      3   2   1     1.096628013503   110.07982737   276.98070077
 H      4   3   2     1.095413164062   112.52534669   222.25678475
 H      4   3   2     1.093891219455   112.45670684    98.86663270
 C     10   3   2     2.358320800909   111.97300636    63.29054134
 H     13  10   3     1.096192045218   156.34079461   120.61684288
 H     13  10   3     1.097292577210    55.62609139    68.51358340
 O      1   2   3     1.552547583812   111.30349807    79.08752829
 C     13  10   3     1.553894784083    66.56185340   202.73813928
 C     17  13  10     1.533519807502   111.29771133    28.38800505
 C     18  17  13     1.547763547833   101.65210759    79.12590912
 C     19  18  17     1.548984828848   103.15673736    34.96596560
 O     17  13  10     1.466936944793   110.48546411   143.70656034
 H     17  13  10     1.090965169013   109.17836481   261.13414106
 O     18  17  13     1.552951705624   110.05762010   196.39348951
 H     10   3   2     0.752586872062   109.75941836   300.80611053
 H     19  18  17     1.095244721512   112.85028977   156.52418188
 H     19  18  17     1.097259768697   110.08897842   276.91200087
 H     20  19  18     1.095429596095   112.55221238   222.22375384
 H     20  19  18     1.094033363294   112.39475186    98.91008573
 H     23  18  17     1.096356693782   109.65530170   304.23017411

---------------------------
INTERNAL COORDINATES (A.U.)
---------------------------
 C      0   0   0     0.000000000000     0.00000000     0.00000000
 C      1   0   0     2.897581852189     0.00000000     0.00000000
 C      2   1   0     2.923601769431   101.67907390     0.00000000
 C      3   2   1     2.927542599525   103.12737509    35.02687180
 O      1   2   3     2.771852715300   104.24948604   319.98542309
 H      1   2   3     2.063339516798   114.43876658   203.42640133
 H      2   1   3     2.070685465531   110.06782188   117.34000099
 H      2   1   3     2.069417510270   113.12442239   238.72597460
 H      3   2   1     2.068349064717   112.83161078   156.54780790
 H      3   2   1     2.072326616307   110.07982737   276.98070077
 H      4   3   2     2.070030883569   112.52534669   222.25678475
 H      4   3   2     2.067154825070   112.45670684    98.86663270
 C     10   3   2     4.456580449648   111.97300636    63.29054134
 H     13  10   3     2.071502755646   156.34079461   120.61684288
 H     13  10   3     2.073582459711    55.62609139    68.51358340
 O      1   2   3     2.933889743286   111.30349807    79.08752829
 C     13  10   3     2.936435582845    66.56185340   202.73813928
 C     17  13  10     2.897932457122   111.29771133    28.38800505
 C     18  17  13     2.924849225470   101.65210759    79.12590912
 C     19  18  17     2.927157112121   103.15673736    34.96596560
 O     17  13  10     2.772109081391   110.48546411   143.70656034
 H     17  13  10     2.061625391082   109.17836481   261.13414106
 O     18  17  13     2.934653422835   110.05762010   196.39348951
 H     10   3   2     1.422183080182   109.75941836   300.80611053
 H     19  18  17     2.069712573281   112.85028977   156.52418188
 H     19  18  17     2.073520460606   110.08897842   276.91200087
 H     20  19  18     2.070061935611   112.55221238   222.22375384
 H     20  19  18     2.067423437998   112.39475186    98.91008573
 H     23  18  17     2.071813896339   109.65530170   304.23017411

---------------------
BASIS SET INFORMATION
---------------------
There are 3 groups of distinct atoms

 Group   1 Type C   : 10s4p contracted to 3s2p pattern {631/31}
 Group   2 Type O   : 10s4p contracted to 3s2p pattern {631/31}
 Group   3 Type H   : 4s contracted to 2s pattern {31}

Atom   0C    basis set group =>   1
Atom   1C    basis set group =>   1
Atom   2C    basis set group =>   1
Atom   3C    basis set group =>   1
Atom   4O    basis set group =>   2
Atom   5H    basis set group =>   3
Atom   6H    basis set group =>   3
Atom   7H    basis set group =>   3
Atom   8H    basis set group =>   3
Atom   9H    basis set group =>   3
Atom  10H    basis set group =>   3
Atom  11H    basis set group =>   3
Atom  12C    basis set group =>   1
Atom  13H    basis set group =>   3
Atom  14H    basis set group =>   3
Atom  15O    basis set group =>   2
Atom  16C    basis set group =>   1
Atom  17C    basis set group =>   1
Atom  18C    basis set group =>   1
Atom  19C    basis set group =>   1
Atom  20O    basis set group =>   2
Atom  21H    basis set group =>   3
Atom  22O    basis set group =>   2
Atom  23H    basis set group =>   3
Atom  24H    basis set group =>   3
Atom  25H    basis set group =>   3
Atom  26H    basis set group =>   3
Atom  27H    basis set group =>   3
Atom  28H    basis set group =>   3
------------------------------------------------------------------------------
                           ORCA GTO INTEGRAL CALCULATION
------------------------------------------------------------------------------

                         BASIS SET STATISTICS AND STARTUP INFO

 # of primitive gaussian shells          ...  246
 # of primitive gaussian functions       ...  350
 # of contracted shells                  ...   97
 # of contracted basis functions         ...  149
 Highest angular momentum                ...    1
 Maximum contraction depth               ...    6
 Integral package used                   ... LIBINT
 Integral threshhold            Thresh   ...  2.500e-11
 Primitive cut-off              TCut     ...  2.500e-12


------------------------------ INTEGRAL EVALUATION ----------------------------


 * One electron integrals 
 Pre-screening matrix                    ... done
 Shell pair data                         ... done (   0.002 sec)

-------------------------------------------------------------------------------
                                 ORCA SCF
-------------------------------------------------------------------------------

------------
SCF SETTINGS
------------
Hamiltonian:
 Density Functional     Method          .... DFT(GTOs)
 Exchange Functional    Exchange        .... B88
   X-Alpha parameter    XAlpha          ....  0.666667
   Becke's b parameter  XBeta           ....  0.004200
 Correlation Functional Correlation     .... LYP
 LDA part of GGA corr.  LDAOpt          .... VWN-5
 Gradients option       PostSCFGGA      .... off
 Hybrid DFT is turned on
   Fraction HF Exchange ScalHFX         ....  0.200000
   Scaling of DF-GGA-X  ScalDFX         ....  0.720000
   Scaling of DF-GGA-C  ScalDFC         ....  0.810000
   Scaling of DF-LDA-C  ScalLDAC        ....  1.000000
   Perturbative correction              ....  0.000000
   Density functional embedding theory  .... OFF
   NL short-range parameter             ....  4.800000


General Settings:
 Integral files         IntName         .... project_8048/ensemble_45_105
 Hartree-Fock type      HFTyp           .... RHF
 Total Charge           Charge          ....    0
 Multiplicity           Mult            ....    1
 Number of Electrons    NEL             ....  102
 Basis Dimension        Dim             ....  149
 Nuclear Repulsion      ENuc            ....    947.0043949005 Eh

Convergence Acceleration:
 DIIS                   CNVDIIS         .... on
   Start iteration      DIISMaxIt       ....    12
   Startup error        DIISStart       ....  0.200000
   # of expansion vecs  DIISMaxEq       ....     5
   Bias factor          DIISBfac        ....   1.050
   Max. coefficient     DIISMaxC        ....  10.000
 Newton-Raphson         CNVNR           .... off
 SOSCF                  CNVSOSCF        .... on
   Start iteration      SOSCFMaxIt      ....   150
   Startup grad/error   SOSCFStart      ....  0.003300
 Level Shifting         CNVShift        .... on
   Level shift para.    LevelShift      ....    0.2500
   Turn off err/grad.   ShiftErr        ....    0.0010
 Zerner damping         CNVZerner       .... off
 Static damping         CNVDamp         .... on
   Fraction old density DampFac         ....    0.7000
   Max. Damping (<1)    DampMax         ....    0.9800
   Min. Damping (>=0)   DampMin         ....    0.0000
   Turn off err/grad.   DampErr         ....    0.1000
 Fernandez-Rico         CNVRico         .... off

SCF Procedure:
 Maximum # iterations   MaxIter         ....   125
 SCF integral mode      SCFMode         .... Direct
   Integral package                     .... LIBINT
 Reset frequency        DirectResetFreq ....    20
 Integral Threshold     Thresh          ....  2.500e-11 Eh
 Primitive CutOff       TCut            ....  2.500e-12 Eh

Convergence Tolerance:
 Convergence Check Mode ConvCheckMode   .... Total+1el-Energy
 Convergence forced     ConvForced      .... 0
 Energy Change          TolE            ....  1.000e-08 Eh
 1-El. energy change                    ....  1.000e-05 Eh
 Orbital Gradient       TolG            ....  1.000e-05
 Orbital Rotation angle TolX            ....  1.000e-05
 DIIS Error             TolErr          ....  5.000e-07


Diagonalization of the overlap matrix:
Smallest eigenvalue                        ... 3.030e-03
Time for diagonalization                   ...    0.008 sec
Threshold for overlap eigenvalues          ... 1.000e-08
Number of eigenvalues below threshold      ... 0
Time for construction of square roots      ...    1.053 sec
Total time needed                          ...    1.061 sec

-------------------
DFT GRID GENERATION
-------------------

General Integration Accuracy     IntAcc      ...  4.340
Radial Grid Type                 RadialGrid  ... Gauss-Chebyshev
Angular Grid (max. acc.)         AngularGrid ... Lebedev-110
Angular grid pruning method      GridPruning ... 3 (G Style)
Weight generation scheme         WeightScheme... Becke
Basis function cutoff            BFCut       ...    1.0000e-11
Integration weight cutoff        WCut        ...    1.0000e-14
Grids for H and He will be reduced by one unit

# of grid points (after initial pruning)     ...  34472 (   0.0 sec)
# of grid points (after weights+screening)   ...  30547 (   0.3 sec)
nearest neighbour list constructed           ...    0.0 sec
Grid point re-assignment to atoms done       ...    0.0 sec
Grid point division into batches done        ...    0.0 sec
Reduced shell lists constructed in    0.6 sec

Total number of grid points                  ...    30547
Total number of batches                      ...      487
Average number of points per batch           ...       62
Average number of grid points per atom       ...     1053
Average number of shells per batch           ...    67.24 (69.32%)
Average number of basis functions per batch  ...   108.86 (73.06%)
Average number of large shells per batch     ...    49.98 (74.33%)
Average number of large basis fcns per batch ...    82.43 (75.72%)
Maximum spatial batch extension              ...  22.19, 20.09, 20.84 au
Average spatial batch extension              ...   3.13,  3.24,  3.29 au

Time for grid setup =    4.524 sec

------------------------------
INITIAL GUESS: MODEL POTENTIAL
------------------------------
Loading Hartree-Fock densities                     ... done
Calculating cut-offs                               ... done
Setting up the integral package                    ... done
Initializing the effective Hamiltonian             ... done
Starting the Coulomb interaction                   ... done (   0.4 sec)
Reading the grid                                   ... done
Mapping shells                                     ... done
Starting the XC term evaluation                    ... done (   0.4 sec)
  promolecular density results
     # of electrons  =    102.015327851
     EX              =    -83.831667431
     EC              =     -3.493288833
     EX+EC           =    -87.324956264
Transforming the Hamiltonian                       ... done (   2.9 sec)
Diagonalizing the Hamiltonian                      ... done (   0.0 sec)
Back transforming the eigenvectors                 ... done (   0.0 sec)
Now organizing SCF variables                       ... done
                      ------------------
                      INITIAL GUESS DONE (  10.0 sec)
                      ------------------
--------------
SCF ITERATIONS
--------------
ITER       Energy         Delta-E        Max-DP      RMS-DP      [F,P]     Damp
               ***  Starting incremental Fock matrix formation  ***
  0   -652.3276866812   0.000000000000 0.07878346  0.00312235  0.2478005 0.7000
  1   -652.4608764356  -0.133189754416 0.04654373  0.00216940  0.1048152 0.7000
                               ***Turning on DIIS***
  2   -652.5113400233  -0.050463587686 0.05572609  0.00361305  0.0295149 0.0000
  3   -652.5956884630  -0.084348439688 0.03241095  0.00141693  0.0579033 0.0000
  4   -652.6117321252  -0.016043662137 0.00922821  0.00044142  0.0136144 0.0000
  5   -652.6126050703  -0.000872945149 0.00315432  0.00015128  0.0040563 0.0000
                      *** Initiating the SOSCF procedure ***
                           *** Shutting down DIIS ***
                      *** Re-Reading the Fockian *** 
                      *** Removing any level shift *** 
ITER      Energy       Delta-E        Grad      Rot      Max-DP    RMS-DP
  6   -652.61268212  -0.0000770451  0.000151  0.000151  0.001076  0.000058
               *** Restarting incremental Fock matrix formation ***
  7   -652.61268477  -0.0000026564  0.000122  0.000279  0.000950  0.000031
  8   -652.61268283   0.0000019391  0.000207  0.000208  0.000600  0.000020
  9   -652.61268601  -0.0000031769  0.000030  0.000070  0.000199  0.000007
 10   -652.61268592   0.0000000861  0.000042  0.000040  0.000134  0.000004
 11   -652.61268607  -0.0000001464  0.000006  0.000009  0.000029  0.000001
 12   -652.61268607   0.0000000012  0.000009  0.000006  0.000018  0.000001
                  ***Gradient check signals convergence***
              ***Rediagonalizing the Fockian in SOSCF/NRSCF***

               *****************************************************
               *                     SUCCESS                       *
               *           SCF CONVERGED AFTER  13 CYCLES          *
               *****************************************************

Setting up the final grid:

General Integration Accuracy     IntAcc      ...  4.670
Radial Grid Type                 RadialGrid  ... Gauss-Chebyshev
Angular Grid (max. acc.)         AngularGrid ... Lebedev-302
Angular grid pruning method      GridPruning ... 3 (G Style)
Weight generation scheme         WeightScheme... Becke
Basis function cutoff            BFCut       ...    1.0000e-11
Integration weight cutoff        WCut        ...    1.0000e-14
Grids for H and He will be reduced by one unit

# of grid points (after initial pruning)     ... 135060 (   0.1 sec)
# of grid points (after weights+screening)   ... 116778 (   1.0 sec)
nearest neighbour list constructed           ...    0.0 sec
Grid point re-assignment to atoms done       ...    0.0 sec
Grid point division into batches done        ...    0.5 sec
Reduced shell lists constructed in    2.3 sec

Total number of grid points                  ...   116778
Total number of batches                      ...     1838
Average number of points per batch           ...       63
Average number of grid points per atom       ...     4027
Average number of shells per batch           ...    61.93 (63.85%)
Average number of basis functions per batch  ...   100.58 (67.50%)
Average number of large shells per batch     ...    45.09 (72.80%)
Average number of large basis fcns per batch ...    74.52 (74.09%)
Maximum spatial batch extension              ...  18.76, 17.94, 20.64 au
Average spatial batch extension              ...   2.11,  2.13,  2.20 au

Final grid set up in    5.1 sec
Final integration                            ... done (  25.3 sec)
Change in XC energy                          ...     0.000744506
Integrated number of electrons               ...   101.999912454
Previous integrated no of electrons          ...   102.010177493

----------------
TOTAL SCF ENERGY
----------------

Total Energy       :         -652.61194157 Eh          -17758.47375 eV

Components:
Nuclear Repulsion  :          947.00439490 Eh           25769.29967 eV
Electronic Energy  :        -1599.61633647 Eh          -43527.77342 eV
One Electron Energy:        -2770.65340163 Eh          -75393.31198 eV
Two Electron Energy:         1171.03706516 Eh           31865.53856 eV

Virial components:
Potential Energy   :        -1302.47482680 Eh          -35442.14188 eV
Kinetic Energy     :          649.86288523 Eh           17683.66813 eV
Virial Ratio       :            2.00423021


DFT components:
N(Alpha)           :       50.999956227133 electrons
N(Beta)            :       50.999956227133 electrons
N(Total)           :      101.999912454267 electrons
E(X)               :      -67.732111831768 Eh       
E(C)               :       -4.098271107074 Eh       
E(XC)              :      -71.830382938843 Eh       
DFET-embed. en.    :        0.000000000000 Eh       

---------------
SCF CONVERGENCE
---------------

  Last Energy change         ...   -3.0718e-09  Tolerance :   1.0000e-08
  Last MAX-Density change    ...    3.4258e-06  Tolerance :   1.0000e-07
  Last RMS-Density change    ...    1.4400e-07  Tolerance :   5.0000e-09
  Last Orbital Gradient      ...    3.9589e-07  Tolerance :   1.0000e-05
  Last Orbital Rotation      ...    6.5641e-07  Tolerance :   1.0000e-05

             **** THE GBW FILE WAS UPDATED (project_8048/ensemble_45_105.gbw) ****
             **** DENSITY FILE WAS UPDATED (project_8048/ensemble_45_105.scfp) ****
             **** ENERGY FILE WAS UPDATED (project_8048/ensemble_45_105.en.tmp) ****
             **** THE GBW FILE WAS UPDATED (project_8048/ensemble_45_105.gbw) ****
             **** DENSITY FILE WAS UPDATED (project_8048/ensemble_45_105.scfp) ****
----------------
ORBITAL ENERGIES
----------------

  NO   OCC          E(Eh)            E(eV) 
   0   2.0000     -19.160837      -521.3929 
   1   2.0000     -19.154669      -521.2250 
   2   2.0000     -19.139035      -520.7996 
   3   2.0000     -19.138240      -520.7780 
   4   2.0000     -10.296669      -280.1866 
   5   2.0000     -10.241154      -278.6760 
   6   2.0000     -10.241036      -278.6727 
   7   2.0000     -10.238273      -278.5976 
   8   2.0000     -10.221363      -278.1374 
   9   2.0000     -10.220328      -278.1093 
  10   2.0000     -10.194301      -277.4010 
  11   2.0000     -10.191958      -277.3373 
  12   2.0000     -10.178859      -276.9808 
  13   2.0000      -1.051266       -28.6064 
  14   2.0000      -1.025105       -27.8945 
  15   2.0000      -0.972659       -26.4674 
  16   2.0000      -0.958635       -26.0858 
  17   2.0000      -0.854103       -23.2413 
  18   2.0000      -0.787197       -21.4207 
  19   2.0000      -0.770554       -20.9678 
  20   2.0000      -0.741408       -20.1747 
  21   2.0000      -0.704755       -19.1774 
  22   2.0000      -0.660108       -17.9625 
  23   2.0000      -0.622972       -16.9519 
  24   2.0000      -0.583225       -15.8704 
  25   2.0000      -0.579875       -15.7792 
  26   2.0000      -0.552248       -15.0274 
  27   2.0000      -0.527526       -14.3547 
  28   2.0000      -0.503330       -13.6963 
  29   2.0000      -0.489442       -13.3184 
  30   2.0000      -0.469854       -12.7854 
  31   2.0000      -0.459969       -12.5164 
  32   2.0000      -0.448954       -12.2167 
  33   2.0000      -0.433231       -11.7888 
  34   2.0000      -0.424835       -11.5603 
  35   2.0000      -0.415335       -11.3018 
  36   2.0000      -0.414574       -11.2811 
  37   2.0000      -0.395107       -10.7514 
  38   2.0000      -0.387810       -10.5528 
  39   2.0000      -0.381757       -10.3881 
  40   2.0000      -0.369903       -10.0656 
  41   2.0000      -0.352846        -9.6014 
  42   2.0000      -0.345945        -9.4136 
  43   2.0000      -0.323767        -8.8101 
  44   2.0000      -0.318613        -8.6699 
  45   2.0000      -0.296257        -8.0616 
  46   2.0000      -0.272709        -7.4208 
  47   2.0000      -0.265746        -7.2313 
  48   2.0000      -0.263506        -7.1704 
  49   2.0000      -0.256899        -6.9906 
  50   2.0000      -0.237819        -6.4714 
  51   0.0000       0.042386         1.1534 
  52   0.0000       0.056350         1.5334 
  53   0.0000       0.073850         2.0096 
  54   0.0000       0.084472         2.2986 
  55   0.0000       0.093439         2.5426 
  56   0.0000       0.098387         2.6772 
  57   0.0000       0.107058         2.9132 
  58   0.0000       0.116379         3.1668 
  59   0.0000       0.128193         3.4883 
  60   0.0000       0.136562         3.7160 
  61   0.0000       0.141663         3.8548 
  62   0.0000       0.147534         4.0146 
  63   0.0000       0.151649         4.1266 
  64   0.0000       0.156352         4.2546 
  65   0.0000       0.170660         4.6439 
  66   0.0000       0.173928         4.7328 
  67   0.0000       0.175244         4.7686 
  68   0.0000       0.184465         5.0195 
  69   0.0000       0.194030         5.2798 
  70   0.0000       0.211631         5.7588 
  71   0.0000       0.223285         6.0759 
  72   0.0000       0.234178         6.3723 
  73   0.0000       0.245471         6.6796 
  74   0.0000       0.256408         6.9772 
  75   0.0000       0.268353         7.3023 
  76   0.0000       0.283867         7.7244 
  77   0.0000       0.290965         7.9176 
  78   0.0000       0.311236         8.4692 
  79   0.0000       0.332345         9.0436 
  80   0.0000       0.368516        10.0278 
  81   0.0000       0.508938        13.8489 
  82   0.0000       0.534945        14.5566 
  83   0.0000       0.543059        14.7774 
  84   0.0000       0.550326        14.9751 
  85   0.0000       0.555537        15.1169 
  86   0.0000       0.573189        15.5973 
  87   0.0000       0.585927        15.9439 
  88   0.0000       0.596917        16.2429 
  89   0.0000       0.600988        16.3537 
  90   0.0000       0.607592        16.5334 
  91   0.0000       0.625334        17.0162 
  92   0.0000       0.638428        17.3725 
  93   0.0000       0.649666        17.6783 
  94   0.0000       0.656435        17.8625 
  95   0.0000       0.669325        18.2133 
  96   0.0000       0.688146        18.7254 
  97   0.0000       0.698756        19.0141 
  98   0.0000       0.718505        19.5515 
  99   0.0000       0.730716        19.8838 
 100   0.0000       0.753299        20.4983 
 101   0.0000       0.763629        20.7794 
 102   0.0000       0.789550        21.4847 
 103   0.0000       0.814802        22.1719 
 104   0.0000       0.832046        22.6411 
 105   0.0000       0.842084        22.9143 
 106   0.0000       0.853289        23.2192 
 107   0.0000       0.870819        23.6962 
 108   0.0000       0.875597        23.8262 
 109   0.0000       0.881979        23.9999 
 110   0.0000       0.895687        24.3729 
 111   0.0000       0.903835        24.5946 
 112   0.0000       0.911306        24.7979 
 113   0.0000       0.913019        24.8445 
 114   0.0000       0.940112        25.5817 
 115   0.0000       0.956146        26.0180 
 116   0.0000       0.972786        26.4708 
 117   0.0000       0.986453        26.8428 
 118   0.0000       1.000514        27.2254 
 119   0.0000       1.013889        27.5893 
 120   0.0000       1.054365        28.6907 
 121   0.0000       1.079978        29.3877 
 122   0.0000       1.086162        29.5560 
 123   0.0000       1.089999        29.6604 
 124   0.0000       1.110157        30.2089 
 125   0.0000       1.133395        30.8412 
 126   0.0000       1.144612        31.1465 
 127   0.0000       1.182727        32.1836 
 128   0.0000       1.201548        32.6958 
 129   0.0000       1.214664        33.0527 
 130   0.0000       1.271505        34.5994 
 131   0.0000       1.290465        35.1153 
 132   0.0000       1.307310        35.5737 
 133   0.0000       1.328967        36.1630 
 134   0.0000       1.386602        37.7314 
 135   0.0000       1.400472        38.1088 
 136   0.0000       1.425882        38.8002 
 137   0.0000       1.451680        39.5022 
 138   0.0000       1.461107        39.7587 
 139   0.0000       1.482119        40.3305 
 140   0.0000       1.554873        42.3102 
 141   0.0000       1.594361        43.3848 
 142   0.0000       1.628386        44.3106 
 143   0.0000       1.809944        49.2511 
 144   0.0000       1.865288        50.7571 
 145   0.0000       1.959969        53.3335 
 146   0.0000       2.046024        55.6751 
 147   0.0000       2.123202        57.7753 
 148   0.0000       2.199743        59.8580 

                    ********************************
                    * MULLIKEN POPULATION ANALYSIS *
                    ********************************

-----------------------
MULLIKEN ATOMIC CHARGES
-----------------------
   0 C :    0.287923
   1 C :   -0.327809
   2 C :   -0.328736
   3 C :   -0.023734
   4 O :   -0.494560
   5 H :    0.176552
   6 H :    0.153301
   7 H :    0.180488
   8 H :    0.168360
   9 H :    0.194903
  10 H :    0.157826
  11 H :    0.148358
  12 C :   -0.043885
  13 H :    0.170312
  14 H :    0.139148
  15 O :   -0.501672
  16 C :    0.076729
  17 C :    0.040628
  18 C :   -0.306748
  19 C :   -0.008959
  20 O :   -0.518648
  21 H :    0.161209
  22 O :   -0.610502
  23 H :    0.144938
  24 H :    0.150878
  25 H :    0.186916
  26 H :    0.155428
  27 H :    0.129750
  28 H :    0.341606
Sum of atomic charges:   -0.0000000

--------------------------------
MULLIKEN REDUCED ORBITAL CHARGES
--------------------------------
  0 C s       :     3.233025  s :     3.233025
      pz      :     0.804692  p :     2.479052
      px      :     0.684160
      py      :     0.990200
  1 C s       :     3.326704  s :     3.326704
      pz      :     0.956280  p :     3.001104
      px      :     1.093395
      py      :     0.951430
  2 C s       :     3.347165  s :     3.347165
      pz      :     0.900450  p :     2.981571
      px      :     1.078193
      py      :     1.002928
  3 C s       :     3.275094  s :     3.275094
      pz      :     0.918817  p :     2.748640
      px      :     1.080356
      py      :     0.749467
  4 O s       :     3.949308  s :     3.949308
      pz      :     1.311531  p :     4.545252
      px      :     1.727600
      py      :     1.506121
  5 H s       :     0.823448  s :     0.823448
  6 H s       :     0.846699  s :     0.846699
  7 H s       :     0.819512  s :     0.819512
  8 H s       :     0.831640  s :     0.831640
  9 H s       :     0.805097  s :     0.805097
 10 H s       :     0.842174  s :     0.842174
 11 H s       :     0.851642  s :     0.851642
 12 C s       :     3.307782  s :     3.307782
      pz      :     0.789156  p :     2.736103
      px      :     1.038083
      py      :     0.908865
 13 H s       :     0.829688  s :     0.829688
 14 H s       :     0.860852  s :     0.860852
 15 O s       :     3.948663  s :     3.948663
      pz      :     1.496651  p :     4.553009
      px      :     1.317483
      py      :     1.738875
 16 C s       :     3.264644  s :     3.264644
      pz      :     0.912872  p :     2.658627
      px      :     0.798515
      py      :     0.947240
 17 C s       :     3.326279  s :     3.326279
      pz      :     0.933307  p :     2.633093
      px      :     1.026551
      py      :     0.673235
 18 C s       :     3.332157  s :     3.332157
      pz      :     0.944614  p :     2.974591
      px      :     0.981603
      py      :     1.048374
 19 C s       :     3.265550  s :     3.265550
      pz      :     0.733563  p :     2.743409
      px      :     0.920991
      py      :     1.088855
 20 O s       :     3.947123  s :     3.947123
      pz      :     1.175133  p :     4.571526
      px      :     1.519804
      py      :     1.876589
 21 H s       :     0.838791  s :     0.838791
 22 O s       :     3.957348  s :     3.957348
      pz      :     1.846457  p :     4.653154
      px      :     1.438773
      py      :     1.367924
 23 H s       :     0.855062  s :     0.855062
 24 H s       :     0.849122  s :     0.849122
 25 H s       :     0.813084  s :     0.813084
 26 H s       :     0.844572  s :     0.844572
 27 H s       :     0.870250  s :     0.870250
 28 H s       :     0.658394  s :     0.658394


                     *******************************
                     * LOEWDIN POPULATION ANALYSIS *
                     *******************************

----------------------
LOEWDIN ATOMIC CHARGES
----------------------
   0 C :    0.181243
   1 C :   -0.267872
   2 C :   -0.284885
   3 C :   -0.038141
   4 O :   -0.308536
   5 H :    0.125457
   6 H :    0.121844
   7 H :    0.162481
   8 H :    0.131058
   9 H :    0.181534
  10 H :    0.100575
  11 H :    0.106507
  12 C :   -0.052638
  13 H :    0.126647
  14 H :    0.112677
  15 O :   -0.349901
  16 C :    0.010796
  17 C :   -0.048280
  18 C :   -0.268026
  19 C :   -0.031881
  20 O :   -0.324559
  21 H :    0.123235
  22 O :   -0.449934
  23 H :    0.190469
  24 H :    0.118460
  25 H :    0.148899
  26 H :    0.110692
  27 H :    0.093111
  28 H :    0.278966

-------------------------------
LOEWDIN REDUCED ORBITAL CHARGES
-------------------------------
  0 C s       :     2.980076  s :     2.980076
      pz      :     0.925891  p :     2.838681
      px      :     0.828919
      py      :     1.083872
  1 C s       :     2.984637  s :     2.984637
      pz      :     1.081940  p :     3.283236
      px      :     1.127276
      py      :     1.074020
  2 C s       :     2.996515  s :     2.996515
      pz      :     1.053187  p :     3.288370
      px      :     1.144055
      py      :     1.091128
  3 C s       :     2.986889  s :     2.986889
      pz      :     1.032914  p :     3.051252
      px      :     1.128682
      py      :     0.889655
  4 O s       :     3.608834  s :     3.608834
      pz      :     1.376495  p :     4.699702
      px      :     1.763427
      py      :     1.559780
  5 H s       :     0.874543  s :     0.874543
  6 H s       :     0.878156  s :     0.878156
  7 H s       :     0.837519  s :     0.837519
  8 H s       :     0.868942  s :     0.868942
  9 H s       :     0.818466  s :     0.818466
 10 H s       :     0.899425  s :     0.899425
 11 H s       :     0.893493  s :     0.893493
 12 C s       :     3.004951  s :     3.004951
      pz      :     0.911277  p :     3.047686
      px      :     1.109682
      py      :     1.026727
 13 H s       :     0.873353  s :     0.873353
 14 H s       :     0.887323  s :     0.887323
 15 O s       :     3.656679  s :     3.656679
      pz      :     1.543883  p :     4.693222
      px      :     1.386121
      py      :     1.763219
 16 C s       :     2.965406  s :     2.965406
      pz      :     1.013306  p :     3.023798
      px      :     0.939548
      py      :     1.070943
 17 C s       :     3.002150  s :     3.002150
      pz      :     1.068822  p :     3.046130
      px      :     1.138945
      py      :     0.838363
 18 C s       :     2.994943  s :     2.994943
      pz      :     1.059073  p :     3.273082
      px      :     1.081728
      py      :     1.132281
 19 C s       :     2.982570  s :     2.982570
      pz      :     0.869176  p :     3.049311
      px      :     1.037933
      py      :     1.142203
 20 O s       :     3.601636  s :     3.601636
      pz      :     1.251458  p :     4.722922
      px      :     1.574512
      py      :     1.896952
 21 H s       :     0.876765  s :     0.876765
 22 O s       :     3.694736  s :     3.694736
      pz      :     1.861255  p :     4.755198
      px      :     1.474203
      py      :     1.419739
 23 H s       :     0.809531  s :     0.809531
 24 H s       :     0.881540  s :     0.881540
 25 H s       :     0.851101  s :     0.851101
 26 H s       :     0.889308  s :     0.889308
 27 H s       :     0.906889  s :     0.906889
 28 H s       :     0.721034  s :     0.721034


                      *****************************
                      * MAYER POPULATION ANALYSIS *
                      *****************************

  NA   - Mulliken gross atomic population
  ZA   - Total nuclear charge
  QA   - Mulliken gross atomic charge
  VA   - Mayer's total valence
  BVA  - Mayer's bonded valence
  FA   - Mayer's free valence

  ATOM       NA         ZA         QA         VA         BVA        FA
  0 C      5.7121     6.0000     0.2879     3.6235     3.6235    -0.0000
  1 C      6.3278     6.0000    -0.3278     3.6679     3.6679    -0.0000
  2 C      6.3287     6.0000    -0.3287     3.5994     3.5994     0.0000
  3 C      6.0237     6.0000    -0.0237     3.6338     3.6338     0.0000
  4 O      8.4946     8.0000    -0.4946     1.8078     1.8078    -0.0000
  5 H      0.8234     1.0000     0.1766     0.9294     0.9294    -0.0000
  6 H      0.8467     1.0000     0.1533     0.9363     0.9363    -0.0000
  7 H      0.8195     1.0000     0.1805     0.9193     0.9193    -0.0000
  8 H      0.8316     1.0000     0.1684     0.9352     0.9352    -0.0000
  9 H      0.8051     1.0000     0.1949     0.8803     0.8803     0.0000
 10 H      0.8422     1.0000     0.1578     0.9157     0.9157    -0.0000
 11 H      0.8516     1.0000     0.1484     0.9306     0.9306    -0.0000
 12 C      6.0439     6.0000    -0.0439     3.6063     3.6063    -0.0000
 13 H      0.8297     1.0000     0.1703     0.9328     0.9328    -0.0000
 14 H      0.8609     1.0000     0.1391     0.9215     0.9215    -0.0000
 15 O      8.5017     8.0000    -0.5017     1.8158     1.8158    -0.0000
 16 C      5.9233     6.0000     0.0767     3.5652     3.5652    -0.0000
 17 C      5.9594     6.0000     0.0406     3.5123     3.5123     0.0000
 18 C      6.3067     6.0000    -0.3067     3.6381     3.6381     0.0000
 19 C      6.0090     6.0000    -0.0090     3.6545     3.6545    -0.0000
 20 O      8.5186     8.0000    -0.5186     1.7752     1.7752    -0.0000
 21 H      0.8388     1.0000     0.1612     0.9344     0.9344     0.0000
 22 O      8.6105     8.0000    -0.6105     1.7477     1.7477    -0.0000
 23 H      0.8551     1.0000     0.1449     0.9112     0.9112     0.0000
 24 H      0.8491     1.0000     0.1509     0.9353     0.9353     0.0000
 25 H      0.8131     1.0000     0.1869     0.9116     0.9116     0.0000
 26 H      0.8446     1.0000     0.1554     0.9302     0.9302    -0.0000
 27 H      0.8702     1.0000     0.1298     0.9294     0.9294     0.0000
 28 H      0.6584     1.0000     0.3416     0.8538     0.8538     0.0000

  Mayer bond orders larger than 0.100000
B(  0-C ,  1-C ) :   0.9080 B(  0-C ,  4-O ) :   0.9060 B(  0-C ,  5-H ) :   0.9298 
B(  0-C , 15-O ) :   0.8501 B(  1-C ,  2-C ) :   0.9459 B(  1-C ,  6-H ) :   0.9259 
B(  1-C ,  7-H ) :   0.8638 B(  2-C ,  3-C ) :   0.9117 B(  2-C ,  8-H ) :   0.9341 
B(  2-C ,  9-H ) :   0.7369 B(  3-C ,  4-O ) :   0.8352 B(  3-C , 10-H ) :   0.9141 
B(  3-C , 11-H ) :   0.9333 B(  9-H , 23-H ) :   0.1546 B( 12-C , 13-H ) :   0.9297 
B( 12-C , 14-H ) :   0.8764 B( 12-C , 15-O ) :   0.8612 B( 12-C , 16-C ) :   0.8698 
B( 16-C , 17-C ) :   0.8922 B( 16-C , 20-O ) :   0.8738 B( 16-C , 21-H ) :   0.9181 
B( 17-C , 18-C ) :   0.9123 B( 17-C , 22-O ) :   0.8718 B( 17-C , 23-H ) :   0.7446 
B( 18-C , 19-C ) :   0.9255 B( 18-C , 24-H ) :   0.9253 B( 18-C , 25-H ) :   0.8472 
B( 19-C , 20-O ) :   0.8378 B( 19-C , 26-H ) :   0.9324 B( 19-C , 27-H ) :   0.9355 
B( 22-O , 28-H ) :   0.8086 

-------
TIMINGS
-------

Total SCF time: 0 days 0 hours 17 min 19 sec 

Total time                  ....    1039.052 sec
Sum of individual times     ....     693.280 sec  ( 66.7%)

Fock matrix formation       ....     638.035 sec  ( 61.4%)
  XC integration            ....     157.418 sec  ( 24.7% of F)
    Basis function eval.    ....       3.499 sec  (  2.2% of XC)
    Density eval.           ....       4.051 sec  (  2.6% of XC)
    XC-Functional eval.     ....       3.204 sec  (  2.0% of XC)
    XC-Potential eval.      ....       1.674 sec  (  1.1% of XC)
Diagonalization             ....      11.867 sec  (  1.1%)
Density matrix formation    ....       0.014 sec  (  0.0%)
Population analysis         ....       5.489 sec  (  0.5%)
Initial guess               ....       5.431 sec  (  0.5%)
Orbital Transformation      ....       0.000 sec  (  0.0%)
Orbital Orthonormalization  ....       0.000 sec  (  0.0%)
DIIS solution               ....      18.461 sec  (  1.8%)
SOSCF solution              ....       4.344 sec  (  0.4%)
Grid generation             ....       9.639 sec  (  0.9%)

-------------------------   --------------------
FINAL SINGLE POINT ENERGY      -652.611941566255
-------------------------   --------------------

------------------------------------------------------------------------------
                         ORCA SCF GRADIENT CALCULATION
------------------------------------------------------------------------------

Gradient of the Kohn-Sham DFT energy:
Kohn-Sham wavefunction type      ... RKS
Hartree-Fock exchange scaling    ...    0.200
Number of operators              ...    1
[...]
  29   2.0000      -0.495437       -13.4815 
  30   2.0000      -0.471481       -12.8297 
  31   2.0000      -0.461526       -12.5588 
  32   2.0000      -0.459321       -12.4988 
  33   2.0000      -0.438867       -11.9422 
  34   2.0000      -0.427689       -11.6380 
  35   2.0000      -0.421628       -11.4731 
  36   2.0000      -0.410914       -11.1815 
  37   2.0000      -0.394392       -10.7320 
  38   2.0000      -0.381058       -10.3691 
  39   2.0000      -0.377707       -10.2779 
  40   2.0000      -0.369570       -10.0565 
  41   2.0000      -0.363906        -9.9024 
  42   2.0000      -0.347134        -9.4460 
  43   2.0000      -0.334347        -9.0981 
  44   2.0000      -0.321892        -8.7591 
  45   2.0000      -0.309111        -8.4113 
  46   2.0000      -0.305041        -8.3006 
  47   2.0000      -0.273798        -7.4504 
  48   2.0000      -0.269360        -7.3296 
  49   2.0000      -0.261751        -7.1226 
  50   2.0000      -0.237996        -6.4762 
  51   0.0000       0.057177         1.5559 
  52   0.0000       0.070688         1.9235 
  53   0.0000       0.082036         2.2323 
  54   0.0000       0.090689         2.4678 
  55   0.0000       0.102191         2.7808 
  56   0.0000       0.109726         2.9858 
  57   0.0000       0.119373         3.2483 
  58   0.0000       0.122291         3.3277 
  59   0.0000       0.135549         3.6885 
  60   0.0000       0.139079         3.7845 
  61   0.0000       0.143736         3.9113 
  62   0.0000       0.146611         3.9895 
  63   0.0000       0.150599         4.0980 
  64   0.0000       0.159640         4.3440 
  65   0.0000       0.167570         4.5598 
  66   0.0000       0.187193         5.0938 
  67   0.0000       0.189952         5.1688 
  68   0.0000       0.192056         5.2261 
  69   0.0000       0.199991         5.4420 
  70   0.0000       0.203959         5.5500 
  71   0.0000       0.219776         5.9804 
  72   0.0000       0.236945         6.4476 
  73   0.0000       0.239918         6.5285 
  74   0.0000       0.245660         6.6848 
  75   0.0000       0.258753         7.0410 
  76   0.0000       0.286963         7.8087 
  77   0.0000       0.299132         8.1398 
  78   0.0000       0.316844         8.6218 
  79   0.0000       0.318811         8.6753 
  80   0.0000       0.335137         9.1196 
  81   0.0000       0.482738        13.1360 
  82   0.0000       0.528682        14.3862 
  83   0.0000       0.542208        14.7542 
  84   0.0000       0.549571        14.9546 
  85   0.0000       0.556758        15.1501 
  86   0.0000       0.566432        15.4134 
  87   0.0000       0.572540        15.5796 
  88   0.0000       0.586723        15.9655 
  89   0.0000       0.590809        16.0767 
  90   0.0000       0.593732        16.1563 
  91   0.0000       0.612031        16.6542 
  92   0.0000       0.621079        16.9004 
  93   0.0000       0.627025        17.0622 
  94   0.0000       0.638914        17.3857 
  95   0.0000       0.651310        17.7231 
  96   0.0000       0.665091        18.0980 
  97   0.0000       0.694399        18.8956 
  98   0.0000       0.713655        19.4195 
  99   0.0000       0.723596        19.6900 
 100   0.0000       0.733277        19.9535 
 101   0.0000       0.756526        20.5861 
 102   0.0000       0.792935        21.5769 
 103   0.0000       0.802973        21.8500 
 104   0.0000       0.808661        22.0048 
 105   0.0000       0.840931        22.8829 
 106   0.0000       0.852307        23.1924 
 107   0.0000       0.853995        23.2384 
 108   0.0000       0.867335        23.6014 
 109   0.0000       0.871447        23.7133 
 110   0.0000       0.884566        24.0703 
 111   0.0000       0.888249        24.1705 
 112   0.0000       0.901863        24.5409 
 113   0.0000       0.907257        24.6877 
 114   0.0000       0.920227        25.0406 
 115   0.0000       0.923811        25.1382 
 116   0.0000       0.944671        25.7058 
 117   0.0000       0.947086        25.7715 
 118   0.0000       0.956816        26.0363 
 119   0.0000       0.967662        26.3314 
 120   0.0000       0.991086        26.9688 
 121   0.0000       1.023480        27.8503 
 122   0.0000       1.035370        28.1739 
 123   0.0000       1.066053        29.0088 
 124   0.0000       1.073843        29.2207 
 125   0.0000       1.093153        29.7462 
 126   0.0000       1.109384        30.1879 
 127   0.0000       1.127848        30.6903 
 128   0.0000       1.145669        31.1753 
 129   0.0000       1.160748        31.5856 
 130   0.0000       1.201601        32.6972 
 131   0.0000       1.247915        33.9575 
 132   0.0000       1.266968        34.4759 
 133   0.0000       1.305903        35.5354 
 134   0.0000       1.319321        35.9006 
 135   0.0000       1.350193        36.7406 
 136   0.0000       1.377799        37.4918 
 137   0.0000       1.426491        38.8168 
 138   0.0000       1.450386        39.4670 
 139   0.0000       1.465019        39.8652 
 140   0.0000       1.523783        41.4642 
 141   0.0000       1.615040        43.9475 
 142   0.0000       1.671034        45.4712 
 143   0.0000       1.727736        47.0141 
 144   0.0000       1.811041        49.2809 
 145   0.0000       1.865730        50.7691 
 146   0.0000       1.907707        51.9113 
 147   0.0000       2.045446        55.6594 
 148   0.0000       2.089298        56.8527 

                    ********************************
                    * MULLIKEN POPULATION ANALYSIS *
                    ********************************

-----------------------
MULLIKEN ATOMIC CHARGES
-----------------------
   0 C :    0.312179
   1 C :   -0.279868
   2 C :   -0.324631
   3 C :   -0.009962
   4 O :   -0.508436
   5 H :    0.166169
   6 H :    0.156959
   7 H :    0.154112
   8 H :    0.148296
   9 H :    0.153549
  10 H :    0.142534
  11 H :    0.150380
  12 C :   -0.007149
  13 H :    0.174674
  14 H :    0.131043
  15 O :   -0.529302
  16 C :    0.064305
  17 C :    0.064319
  18 C :   -0.300212
  19 C :   -0.024047
  20 O :   -0.520512
  21 H :    0.155798
  22 O :   -0.606077
  23 H :    0.157821
  24 H :    0.156971
  25 H :    0.155657
  26 H :    0.157254
  27 H :    0.141229
  28 H :    0.366948
Sum of atomic charges:    0.0000000

--------------------------------
MULLIKEN REDUCED ORBITAL CHARGES
--------------------------------
  0 C s       :     3.178153  s :     3.178153
      pz      :     0.764908  p :     2.509668
      px      :     0.690180
      py      :     1.054580
  1 C s       :     3.316356  s :     3.316356
      pz      :     0.984877  p :     2.963513
      px      :     1.005345
      py      :     0.973290
  2 C s       :     3.328155  s :     3.328155
      pz      :     0.913860  p :     2.996476
      px      :     1.091037
      py      :     0.991579
  3 C s       :     3.265016  s :     3.265016
      pz      :     0.979084  p :     2.744947
      px      :     0.985493
      py      :     0.780370
  4 O s       :     3.941292  s :     3.941292
      pz      :     1.414242  p :     4.567145
      px      :     1.622297
      py      :     1.530606
  5 H s       :     0.833831  s :     0.833831
  6 H s       :     0.843041  s :     0.843041
  7 H s       :     0.845888  s :     0.845888
  8 H s       :     0.851704  s :     0.851704
  9 H s       :     0.846451  s :     0.846451
 10 H s       :     0.857466  s :     0.857466
 11 H s       :     0.849620  s :     0.849620
 12 C s       :     3.263156  s :     3.263156
      pz      :     0.871081  p :     2.743993
      px      :     0.980213
      py      :     0.892699
 13 H s       :     0.825326  s :     0.825326
 14 H s       :     0.868957  s :     0.868957
 15 O s       :     3.905456  s :     3.905456
      pz      :     1.658087  p :     4.623845
      px      :     1.308713
      py      :     1.657046
 16 C s       :     3.260925  s :     3.260925
      pz      :     0.846349  p :     2.674770
      px      :     0.872824
      py      :     0.955597
 17 C s       :     3.275635  s :     3.275635
      pz      :     0.967051  p :     2.660045
      px      :     0.967873
      py      :     0.725121
 18 C s       :     3.318203  s :     3.318203
      pz      :     0.940736  p :     2.982009
      px      :     0.973231
      py      :     1.068042
 19 C s       :     3.266997  s :     3.266997
      pz      :     0.787609  p :     2.757050
      px      :     0.921089
      py      :     1.048351
 20 O s       :     3.943397  s :     3.943397
      pz      :     1.169351  p :     4.577115
      px      :     1.578970
      py      :     1.828793
 21 H s       :     0.844202  s :     0.844202
 22 O s       :     3.923394  s :     3.923394
      pz      :     1.854074  p :     4.682683
      px      :     1.313282
      py      :     1.515326
 23 H s       :     0.842179  s :     0.842179
 24 H s       :     0.843029  s :     0.843029
 25 H s       :     0.844343  s :     0.844343
 26 H s       :     0.842746  s :     0.842746
 27 H s       :     0.858771  s :     0.858771
 28 H s       :     0.633052  s :     0.633052


                     *******************************
                     * LOEWDIN POPULATION ANALYSIS *
                     *******************************

----------------------
LOEWDIN ATOMIC CHARGES
----------------------
   0 C :    0.180666
   1 C :   -0.228798
   2 C :   -0.225607
   3 C :   -0.032265
   4 O :   -0.317743
   5 H :    0.111721
   6 H :    0.122929
   7 H :    0.116625
   8 H :    0.118422
   9 H :    0.108670
  10 H :    0.100797
  11 H :    0.105642
  12 C :   -0.038643
  13 H :    0.126605
  14 H :    0.100152
  15 O :   -0.328805
  16 C :    0.002499
  17 C :    0.033367
  18 C :   -0.241045
  19 C :   -0.034973
  20 O :   -0.327840
  21 H :    0.117178
  22 O :   -0.415051
  23 H :    0.112702
  24 H :    0.123569
  25 H :    0.116785
  26 H :    0.110101
  27 H :    0.098287
  28 H :    0.284053

-------------------------------
LOEWDIN REDUCED ORBITAL CHARGES
-------------------------------
  0 C s       :     2.946791  s :     2.946791
      pz      :     0.901333  p :     2.872543
      px      :     0.869264
      py      :     1.101946
  1 C s       :     2.981883  s :     2.981883
      pz      :     1.079938  p :     3.246915
      px      :     1.093510
      py      :     1.073468
  2 C s       :     2.972935  s :     2.972935
      pz      :     1.038067  p :     3.252672
      px      :     1.129262
      py      :     1.085343
  3 C s       :     2.985235  s :     2.985235
      pz      :     1.077982  p :     3.047030
      px      :     1.058844
      py      :     0.910203
  4 O s       :     3.601730  s :     3.601730
      pz      :     1.473680  p :     4.716013
      px      :     1.666684
      py      :     1.575649
  5 H s       :     0.888279  s :     0.888279
  6 H s       :     0.877071  s :     0.877071
  7 H s       :     0.883375  s :     0.883375
  8 H s       :     0.881578  s :     0.881578
  9 H s       :     0.891330  s :     0.891330
 10 H s       :     0.899203  s :     0.899203
 11 H s       :     0.894358  s :     0.894358
 12 C s       :     2.978401  s :     2.978401
      pz      :     0.979537  p :     3.060242
      px      :     1.061974
      py      :     1.018731
 13 H s       :     0.873395  s :     0.873395
 14 H s       :     0.899848  s :     0.899848
 15 O s       :     3.572277  s :     3.572277
      pz      :     1.697936  p :     4.756528
      px      :     1.370815
      py      :     1.687777
 16 C s       :     2.970907  s :     2.970907
      pz      :     0.966295  p :     3.026595
      px      :     0.985299
      py      :     1.075001
 17 C s       :     2.954056  s :     2.954056
      pz      :     1.064885  p :     3.012576
      px      :     1.044972
      py      :     0.902719
 18 C s       :     2.983314  s :     2.983314
      pz      :     1.056688  p :     3.257731
      px      :     1.081416
      py      :     1.119627
 19 C s       :     2.982525  s :     2.982525
      pz      :     0.911837  p :     3.052447
      px      :     1.034150
      py      :     1.106461
 20 O s       :     3.599787  s :     3.599787
      pz      :     1.248486  p :     4.728052
      px      :     1.624711
      py      :     1.854855
 21 H s       :     0.882822  s :     0.882822
 22 O s       :     3.615082  s :     3.615082
      pz      :     1.871966  p :     4.799969
      px      :     1.365424
      py      :     1.562579
 23 H s       :     0.887298  s :     0.887298
 24 H s       :     0.876431  s :     0.876431
 25 H s       :     0.883215  s :     0.883215
 26 H s       :     0.889899  s :     0.889899
 27 H s       :     0.901713  s :     0.901713
 28 H s       :     0.715947  s :     0.715947


                      *****************************
                      * MAYER POPULATION ANALYSIS *
                      *****************************

  NA   - Mulliken gross atomic population
  ZA   - Total nuclear charge
  QA   - Mulliken gross atomic charge
  VA   - Mayer's total valence
  BVA  - Mayer's bonded valence
  FA   - Mayer's free valence

  ATOM       NA         ZA         QA         VA         BVA        FA
  0 C      5.6878     6.0000     0.3122     3.6758     3.6758     0.0000
  1 C      6.2799     6.0000    -0.2799     3.6972     3.6972    -0.0000
  2 C      6.3246     6.0000    -0.3246     3.7473     3.7473     0.0000
  3 C      6.0100     6.0000    -0.0100     3.6574     3.6574    -0.0000
  4 O      8.5084     8.0000    -0.5084     1.7897     1.7897     0.0000
  5 H      0.8338     1.0000     0.1662     0.9268     0.9268    -0.0000
  6 H      0.8430     1.0000     0.1570     0.9305     0.9305     0.0000
  7 H      0.8459     1.0000     0.1541     0.9379     0.9379     0.0000
  8 H      0.8517     1.0000     0.1483     0.9374     0.9374     0.0000
  9 H      0.8465     1.0000     0.1535     0.9369     0.9369     0.0000
 10 H      0.8575     1.0000     0.1425     0.9270     0.9270     0.0000
 11 H      0.8496     1.0000     0.1504     0.9278     0.9278     0.0000
 12 C      6.0071     6.0000    -0.0071     3.6420     3.6420    -0.0000
 13 H      0.8253     1.0000     0.1747     0.9270     0.9270    -0.0000
 14 H      0.8690     1.0000     0.1310     0.9347     0.9347     0.0000
 15 O      8.5293     8.0000    -0.5293     1.7901     1.7901    -0.0000
 16 C      5.9357     6.0000     0.0643     3.5851     3.5851     0.0000
 17 C      5.9357     6.0000     0.0643     3.6434     3.6434    -0.0000
 18 C      6.3002     6.0000    -0.3002     3.6864     3.6864     0.0000
 19 C      6.0240     6.0000    -0.0240     3.6654     3.6654     0.0000
 20 O      8.5205     8.0000    -0.5205     1.7630     1.7630    -0.0000
 21 H      0.8442     1.0000     0.1558     0.9314     0.9314     0.0000
 22 O      8.6061     8.0000    -0.6061     1.7369     1.7369     0.0000
 23 H      0.8422     1.0000     0.1578     0.9395     0.9395     0.0000
 24 H      0.8430     1.0000     0.1570     0.9395     0.9395     0.0000
 25 H      0.8443     1.0000     0.1557     0.9375     0.9375     0.0000
 26 H      0.8427     1.0000     0.1573     0.9267     0.9267     0.0000
 27 H      0.8588     1.0000     0.1412     0.9280     0.9280    -0.0000
 28 H      0.6331     1.0000     0.3669     0.8320     0.8320     0.0000

  Mayer bond orders larger than 0.100000
B(  0-C ,  1-C ) :   0.9069 B(  0-C ,  4-O ) :   0.8969 B(  0-C ,  5-H ) :   0.9357 
B(  0-C , 15-O ) :   0.8966 B(  1-C ,  2-C ) :   0.9583 B(  1-C ,  6-H ) :   0.9306 
B(  1-C ,  7-H ) :   0.9199 B(  2-C ,  3-C ) :   0.9474 B(  2-C ,  8-H ) :   0.9456 
B(  2-C ,  9-H ) :   0.9190 B(  3-C ,  4-O ) :   0.8412 B(  3-C , 10-H ) :   0.9331 
B(  3-C , 11-H ) :   0.9389 B( 12-C , 13-H ) :   0.9274 B( 12-C , 14-H ) :   0.9101 
B( 12-C , 15-O ) :   0.8610 B( 12-C , 16-C ) :   0.8903 B( 16-C , 17-C ) :   0.9069 
B( 16-C , 20-O ) :   0.8559 B( 16-C , 21-H ) :   0.9111 B( 17-C , 18-C ) :   0.9233 
B( 17-C , 22-O ) :   0.8768 B( 17-C , 23-H ) :   0.9133 B( 18-C , 19-C ) :   0.9424 
B( 18-C , 24-H ) :   0.9382 B( 18-C , 25-H ) :   0.9089 B( 19-C , 20-O ) :   0.8455 
B( 19-C , 26-H ) :   0.9324 B( 19-C , 27-H ) :   0.9360 B( 22-O , 28-H ) :   0.7917 


-------
TIMINGS
-------

Total SCF time: 0 days 0 hours 2 min 34 sec 

Total time                  ....     154.360 sec
Sum of individual times     ....     113.331 sec  ( 73.4%)

Fock matrix formation       ....     100.655 sec  ( 65.2%)
  XC integration            ....      32.772 sec  ( 32.6% of F)
    Basis function eval.    ....       1.607 sec  (  4.9% of XC)
    Density eval.           ....       0.682 sec  (  2.1% of XC)
    XC-Functional eval.     ....       0.526 sec  (  1.6% of XC)
    XC-Potential eval.      ....       0.703 sec  (  2.1% of XC)
Diagonalization             ....       0.010 sec  (  0.0%)
Density matrix formation    ....       0.005 sec  (  0.0%)
Population analysis         ....       4.454 sec  (  2.9%)
Initial guess               ....       0.794 sec  (  0.5%)
Orbital Transformation      ....       0.000 sec  (  0.0%)
Orbital Orthonormalization  ....       0.005 sec  (  0.0%)
DIIS solution               ....       0.002 sec  (  0.0%)
SOSCF solution              ....       2.239 sec  (  1.5%)
Grid generation             ....       5.173 sec  (  3.4%)

-------------------------   --------------------
FINAL SINGLE POINT ENERGY      -652.841869030310
-------------------------   --------------------

                                *** OPTIMIZATION RUN DONE ***

                            ***************************************
                            *     ORCA property calculations      *
                            ***************************************

                                    ---------------------
                                    Active property flags
                                    ---------------------
   (+) Dipole Moment


------------------------------------------------------------------------------
                       ORCA ELECTRIC PROPERTIES CALCULATION
------------------------------------------------------------------------------

Dipole Moment Calculation                       ... on
Quadrupole Moment Calculation                   ... off
Polarizability Calculation                      ... off
GBWName                                         ... project_8048/ensemble_45_105.gbw
Electron density file                           ... project_8048/ensemble_45_105.scfp
The origin for moment calculation is the CENTER OF MASS  = (-41.978189, 52.850656 88.236308)

-------------
DIPOLE MOMENT
-------------
                                X             Y             Z
Electronic contribution:     -4.60104      -2.39790       1.45962
Nuclear contribution   :      5.55970       2.96559      -1.90200
                        -----------------------------------------
Total Dipole Moment    :      0.95866       0.56769      -0.44239
                        -----------------------------------------
Magnitude (a.u.)       :      1.19875
Magnitude (Debye)      :      3.04697



--------------------
Rotational spectrum 
--------------------
 
Rotational constants in cm-1:     0.045336     0.017148     0.015895 
Rotational constants in MHz :  1359.140893   514.075688   476.534746 

 Dipole components along the rotational axes: 
x,y,z [a.u.] :     0.252446     0.976210     0.648290 
x,y,z [Debye]:     0.641667     2.481328     1.647821 

 

Timings for individual modules:

Sum of individual times         ...    17051.977 sec (= 284.200 min)
GTO integral calculation        ...      540.345 sec (=   9.006 min)   3.2 %
SCF iterations                  ...    14067.181 sec (= 234.453 min)  82.5 %
SCF Gradient evaluation         ...     2053.097 sec (=  34.218 min)  12.0 %
Geometry relaxation             ...      391.354 sec (=   6.523 min)   2.3 %
                             ****ORCA TERMINATED NORMALLY****
TOTAL RUN TIME: 0 days 5 hours 2 minutes 32 seconds 785 msec
