
                                 *****************
                                 * O   R   C   A *
                                 *****************

           --- An Ab Initio, DFT and Semiempirical electronic structure package ---

                  #######################################################
                  #                        -***-                        #
                  #          Department of theory and spectroscopy      #
                  #               Directorship: Frank Neese             #
                  #        Max Planck Institute fuer Kohlenforschung    #
                  #                Kaiser Wilhelm Platz 1               #
                  #                 D-45470 Muelheim/Ruhr               #
                  #                      Germany                        #
                  #                                                     #
                  #                  All rights reserved                #
                  #                        -***-                        #
                  #######################################################


                         Program Version 4.2.0 -  RELEASE  -


 With contributions from (in alphabetic order):
   Daniel Aravena         : Magnetic Suceptibility
   Michael Atanasov       : Ab Initio Ligand Field Theory (pilot matlab implementation)
   Alexander A. Auer      : GIAO ZORA, VPT2
   Ute Becker             : Parallelization
   Giovanni Bistoni       : ED, misc. LED, open-shell LED, HFLED
   Martin Brehm           : Molecular dynamics
   Dmytro Bykov           : SCF Hessian
   Vijay G. Chilkuri      : MRCI spin determinant printing, contributions to CSF-ICE
   Dipayan Datta          : RHF DLPNO-CCSD density
   Achintya Kumar Dutta   : EOM-CC, STEOM-CC
   Dmitry Ganyushin       : Spin-Orbit,Spin-Spin,Magnetic field MRCI
   Miquel Garcia          : C-PCM Hessian, Gaussian charge scheme
   Yang Guo               : DLPNO-NEVPT2, CIM, IAO-localization
   Andreas Hansen         : Spin unrestricted coupled pair/coupled cluster methods
   Benjamin Helmich-Paris : CASSCF linear response (MC-RPA)
   Lee Huntington         : MR-EOM, pCC
   Robert Izsak           : Overlap fitted RIJCOSX, COSX-SCS-MP3, EOM
   Christian Kollmar      : KDIIS, OOCD, Brueckner-CCSD(T), CCSD density
   Simone Kossmann        : Meta GGA functionals, TD-DFT gradient, OOMP2, MP2 Hessian
   Martin Krupicka        : AUTO-CI
   Lucas Lang             : DCDCAS
   Dagmar Lenk            : GEPOL surface, SMD
   Dimitrios Liakos       : Extrapolation schemes; Compound Job, initial MDCI parallelization
   Dimitrios Manganas     : Further ROCIS development; embedding schemes
   Dimitrios Pantazis     : SARC Basis sets
   Taras Petrenko         : DFT Hessian,TD-DFT gradient, ASA, ECA, R-Raman, ABS, FL, XAS/XES, NRVS
   Peter Pinski           : DLPNO-MP2, DLPNO-MP2 Gradient
   Christoph Reimann      : Effective Core Potentials
   Marius Retegan         : Local ZFS, SOC
   Christoph Riplinger    : Optimizer, TS searches, QM/MM, DLPNO-CCSD(T), (RO)-DLPNO pert. Triples
   Tobias Risthaus        : Range-separated hybrids, TD-DFT gradient, RPA, STAB
   Michael Roemelt        : Original ROCIS implementation
   Masaaki Saitow         : Open-shell DLPNO-CCSD energy and density
   Barbara Sandhoefer     : DKH picture change effects
   Avijit Sen             : IP-ROCIS
   Kantharuban Sivalingam : CASSCF convergence, NEVPT2, FIC-MRCI
   Bernardo de Souza      : ESD, SOC TD-DFT
   Georgi Stoychev        : AutoAux, RI-MP2 NMR
   Willem Van den Heuvel  : Paramagnetic NMR
   Boris Wezisla          : Elementary symmetry handling
   Frank Wennmohs         : Technical directorship


 We gratefully acknowledge several colleagues who have allowed us to
 interface, adapt or use parts of their codes:
   Stefan Grimme, W. Hujo, H. Kruse,             : VdW corrections, initial TS optimization,
                  C. Bannwarth                     DFT functionals, gCP, sTDA/sTD-DF
   Ed Valeev, F. Pavosevic, A. Kumar             : LibInt (2-el integral package), F12 methods
   Garnet Chan, S. Sharma, J. Yang, R. Olivares  : DMRG
   Ulf Ekstrom                                   : XCFun DFT Library
   Mihaly Kallay                                 : mrcc  (arbitrary order and MRCC methods)
   Andreas Klamt, Michael Diedenhofen            : otool_cosmo (COSMO solvation model)
   Jiri Pittner, Ondrej Demel                    : Mk-CCSD
   Frank Weinhold                                : gennbo (NPA and NBO analysis)
   Christopher J. Cramer and Donald G. Truhlar   : smd solvation model
   Lars Goerigk                                  : TD-DFT with DH, B97 family of functionals
   V. Asgeirsson, H. Jonsson                     : NEB implementation
   FAccTs GmbH                                   : IRC, NEB, NEB-TS, Multilevel, MM, QM/MM, CI optimization
   S Lehtola, MJT Oliveira, MAL Marques          : LibXC Library


 Your calculation uses the libint2 library for the computation of 2-el integrals
 For citations please refer to: http://libint.valeyev.net

 Your ORCA version has been built with support for libXC version: 4.2.3
 For citations please refer to: https://tddft.org/programs/libxc/

 This ORCA versions uses:
   CBLAS   interface :  Fast vector & matrix operations
   LAPACKE interface :  Fast linear algebra routines
   SCALAPACK package :  Parallel linear algebra routines


----- Orbital basis set information -----
Your calculation utilizes the basis: 6-31G
   H-He, Li-Ne : W. J. Hehre, R. Ditchfield and J.A. Pople, J. Chem. Phys. 56, 2257 (1972).
                 Note: He and Ne are unpublished basis sets taken from the Gaussian program.
                 Note: Li and B from J. D. Dill and J. A. Pople, J. Chem. Phys. 62, 2921 (1975).
   Na - Ar     : M. M. Francl, W. J. Pietro, W. J. Hehre, J. S. Binkley, M. S. Gordon, 
                 D. J. DeFrees and J. A. Pople, J. Chem. Phys. 77, 3654 (1982).
   K - Zn      : V. A. Rassolov, J. A. Pople, M. A. Ratner, and T. L. Windus, J. Chem. Phys. 109, 1223 (1998).

================================================================================
                                        WARNINGS
                       Please study these warnings very carefully!
================================================================================


WARNING: Geometry Optimization
  ===> : Switching off AutoStart
         For restart on a previous wavefunction, please use MOREAD

INFO   : the flag for use of LIBINT has been found!

================================================================================
                                       INPUT FILE
================================================================================
NAME = project_8052/ensemble_195_180.inp
|  1> # Test redundant internal optimization
|  2> #
|  3> ! RKS B3LYP  Opt TightSCF SmallPrint
|  4> 
|  5> %basis
|  6>         Basis "6-31G"
|  7> end
|  8> 
|  9> %geom
| 10> Constraints
| 11> { D 4  0  15  12  195.0   C } # D for Dihedral angle
| 12> { D 0  15  12  16  180.0   C } # D for Dihedral angle
| 13> { D 0  4  3  2   C } # D for Dihedral angle
| 14> { D 4  3  2  1   C } # D for Dihedral angle
| 15> { D 3  2  1  0   C } # D for Dihedral angle
| 16> { D 2  1  0  4   C } # D for Dihedral angle
| 17> { D 1  0  4  3   C } # D for Dihedral angle
| 18> { D 16  20  19  18   C } # D for Dihedral angle
| 19> { D 20  19  18  17   C } # D for Dihedral angle
| 20> { D 19  18  17  16   C } # D for Dihedral angle
| 21> { D 18  17  16  20   C } # D for Dihedral angle
| 22> { D 17  16  20  19   C } # D for Dihedral angle
| 23> { D 15  12  16  20   C } # D for Dihedral angle
| 24> end
| 25> end
| 26> 
| 27> 
| 28> #%pal 
| 29> #nprocs 8
| 30> #end
| 31> 
| 32> * xyz 0 1
| 33> C  -21.048   26.222   46.251
| 34> C  -20.361   27.558   45.944
| 35> C  -20.329   28.222   47.341
| 36> C  -20.110   27.022   48.296
| 37> O  -20.473   25.807   47.535
| 38> H  -20.833   25.428   45.533
| 39> H  -19.344   27.382   45.576
| 40> H  -20.898   28.157   45.201
| 41> H  -19.543   28.978   47.434
| 42> H  -21.289   28.710   47.548
| 43> H  -20.733   27.082   49.195
| 44> H  -19.064   26.913   48.597
| 45> C  -23.353   26.472   45.026
| 46> H  -22.979   27.325   44.447
| 47> H  -23.189   25.560   44.438
| 48> O  -22.586   26.394   46.375
| 49> C  -24.885   26.644   45.216
| 50> C  -25.621   26.601   43.872
| 51> C  -25.670   25.080   43.590
| 52> C  -25.842   24.467   45.002
| 53> O  -25.439   25.512   45.966
| 54> H  -25.074   27.543   45.806
| 55> O  -27.055   27.176   44.030
| 56> H  -25.108   27.163   43.083
| 57> H  -26.483   24.801   42.911
| 58> H  -24.727   24.750   43.138
| 59> H  -25.217   23.579   45.152
| 60> H  -26.882   24.209   45.221
| 61> H  -27.587   26.628   44.815
| 62> *
| 63> 
| 64>                          ****END OF INPUT****
================================================================================

                       *****************************
                       * Geometry Optimization Run *
                       *****************************

Geometry optimization settings:
Update method            Update   .... BFGS
Choice of coordinates    CoordSys .... Z-matrix Internals
Initial Hessian          InHess   .... Almoef's Model

Convergence Tolerances:
Energy Change            TolE     ....  5.0000e-06 Eh
Max. Gradient            TolMAXG  ....  3.0000e-04 Eh/bohr
RMS Gradient             TolRMSG  ....  1.0000e-04 Eh/bohr
Max. Displacement        TolMAXD  ....  4.0000e-03 bohr
RMS Displacement         TolRMSD  ....  2.0000e-03 bohr
Strict Convergence                ....  False
------------------------------------------------------------------------------
                        ORCA OPTIMIZATION COORDINATE SETUP
------------------------------------------------------------------------------

The optimization will be done in new redundant internal coordinates
Making redundant internal coordinates   ...  (new redundants) done
Evaluating the initial hessian          ...  (Almloef) done
Evaluating the coordinates              ...  done
Calculating the B-matrix                .... done
Calculating the G-matrix                .... done
Diagonalizing the G-matrix              .... done
Imposing constraints:
 Iter   0:  RMS(Cart)=    0.0000958430 RMS(Int)=    0.0000343750
 Iter   1:  RMS(Cart)=    0.0000486705 RMS(Int)=    0.0000186607
 Iter   2:  RMS(Cart)=    0.0000259410 RMS(Int)=    0.0000110945
 Iter   3:  RMS(Cart)=    0.0000145845 RMS(Int)=    0.0000072673
 Iter   4:  RMS(Cart)=    0.0000086456 RMS(Int)=    0.0000052161
 Iter   5:  RMS(Cart)=    0.0000053806 RMS(Int)=    0.0000040653
 Iter   6:  RMS(Cart)=    0.0000034980 RMS(Int)=    0.0000034017
 Iter   7:  RMS(Cart)=    0.0000023687 RMS(Int)=    0.0000030094
 Iter   8:  RMS(Cart)=    0.0000016715 RMS(Int)=    0.0000027675
 Iter   9:  RMS(Cart)=    0.0000012337 RMS(Int)=    0.0000026073
 Iter  10:  RMS(Cart)=    0.0000009567 RMS(Int)=    0.0000024911
 Iter  11:  RMS(Cart)=    0.0000007808 RMS(Int)=    0.0000023986
 Iter  12:  RMS(Cart)=    0.0000006683 RMS(Int)=    0.0000023195
 Iter  13:  RMS(Cart)=    0.0000005947 RMS(Int)=    0.0000022480
 Iter  14:  RMS(Cart)=    0.0000005449 RMS(Int)=    0.0000021815
 Iter  15:  RMS(Cart)=    0.0000005093 RMS(Int)=    0.0000021184
 Iter  16:  RMS(Cart)=    0.0000004823 RMS(Int)=    0.0000020581
 Iter  17:  RMS(Cart)=    0.0000004606 RMS(Int)=    0.0000019999
 Iter  18:  RMS(Cart)=    0.0000004423 RMS(Int)=    0.0000019437
 Iter  19:  RMS(Cart)=    0.0000004262 RMS(Int)=    0.0000018894
 Iter  20:  RMS(Cart)=    0.0000004116 RMS(Int)=    0.0000018368
 Iter  21:  RMS(Cart)=    0.0000003982 RMS(Int)=    0.0000017859
 Iter  22:  RMS(Cart)=    0.0000003857 RMS(Int)=    0.0000017366
 Iter  23:  RMS(Cart)=    0.0000003738 RMS(Int)=    0.0000016887
 Iter  24:  RMS(Cart)=    0.0000003625 RMS(Int)=    0.0000016424
 Iter  25:  RMS(Cart)=    0.0000003517 RMS(Int)=    0.0000015975
 Iter  26:  RMS(Cart)=    0.0000003412 RMS(Int)=    0.0000015540
 Iter  27:  RMS(Cart)=    0.0000003312 RMS(Int)=    0.0000015118
 Iter  28:  RMS(Cart)=    0.0000003216 RMS(Int)=    0.0000014709
 Iter  29:  RMS(Cart)=    0.0000003122 RMS(Int)=    0.0000014312
 Iter  30:  RMS(Cart)=    0.0000003032 RMS(Int)=    0.0000013927
 Iter  31:  RMS(Cart)=    0.0000002945 RMS(Int)=    0.0000013554
 Iter  32:  RMS(Cart)=    0.0000002860 RMS(Int)=    0.0000013193
 Iter  33:  RMS(Cart)=    0.0000002778 RMS(Int)=    0.0000012842
 Iter  34:  RMS(Cart)=    0.0000002699 RMS(Int)=    0.0000012502
 Iter  35:  RMS(Cart)=    0.0000002622 RMS(Int)=    0.0000012172
 Iter  36:  RMS(Cart)=    0.0000002548 RMS(Int)=    0.0000011851
 Iter  37:  RMS(Cart)=    0.0000002476 RMS(Int)=    0.0000011541
 Iter  38:  RMS(Cart)=    0.0000002406 RMS(Int)=    0.0000011240
 Iter  39:  RMS(Cart)=    0.0000002338 RMS(Int)=    0.0000010947
 Iter  40:  RMS(Cart)=    0.0000002272 RMS(Int)=    0.0000010663
 Iter  41:  RMS(Cart)=    0.0000002209 RMS(Int)=    0.0000010388
 Iter  42:  RMS(Cart)=    0.0000002147 RMS(Int)=    0.0000010121
 Iter  43:  RMS(Cart)=    0.0000002087 RMS(Int)=    0.0000009862
 Iter  44:  RMS(Cart)=    0.0000002029 RMS(Int)=    0.0000009610
 Iter  45:  RMS(Cart)=    0.0000001973 RMS(Int)=    0.0000009366
 Iter  46:  RMS(Cart)=    0.0000001918 RMS(Int)=    0.0000009129
 Iter  47:  RMS(Cart)=    0.0000001865 RMS(Int)=    0.0000008898
 Iter  48:  RMS(Cart)=    0.0000001814 RMS(Int)=    0.0000008675
 Iter  49:  RMS(Cart)=    0.0000001764 RMS(Int)=    0.0000008458
 Iter  50:  RMS(Cart)=    0.0000001715 RMS(Int)=    0.0000008247
 Iter  51:  RMS(Cart)=    0.0000001669 RMS(Int)=    0.0000008042
 Iter  52:  RMS(Cart)=    0.0000001623 RMS(Int)=    0.0000007843
 Iter  53:  RMS(Cart)=    0.0000001579 RMS(Int)=    0.0000007650
 Iter  54:  RMS(Cart)=    0.0000001536 RMS(Int)=    0.0000007463
 Iter  55:  RMS(Cart)=    0.0000001494 RMS(Int)=    0.0000007281
 Iter  56:  RMS(Cart)=    0.0000001454 RMS(Int)=    0.0000007104
 Iter  57:  RMS(Cart)=    0.0000001415 RMS(Int)=    0.0000006932
 Iter  58:  RMS(Cart)=    0.0000001377 RMS(Int)=    0.0000006765
 Iter  59:  RMS(Cart)=    0.0000001340 RMS(Int)=    0.0000006603
 Iter  60:  RMS(Cart)=    0.0000001304 RMS(Int)=    0.0000006445
 Iter  61:  RMS(Cart)=    0.0000001269 RMS(Int)=    0.0000006292
 Iter  62:  RMS(Cart)=    0.0000001236 RMS(Int)=    0.0000006143
 Iter  63:  RMS(Cart)=    0.0000001203 RMS(Int)=    0.0000005998
 Iter  64:  RMS(Cart)=    0.0000001171 RMS(Int)=    0.0000005858
 Iter  65:  RMS(Cart)=    0.0000001140 RMS(Int)=    0.0000005721
 Iter  66:  RMS(Cart)=    0.0000001110 RMS(Int)=    0.0000005588
 Iter  67:  RMS(Cart)=    0.0000001081 RMS(Int)=    0.0000005459
 Iter  68:  RMS(Cart)=    0.0000001053 RMS(Int)=    0.0000005333
 Iter  69:  RMS(Cart)=    0.0000001025 RMS(Int)=    0.0000005211
 Iter  70:  RMS(Cart)=    0.0000000998 RMS(Int)=    0.0000005092
 Iter  71:  RMS(Cart)=    0.0000000973 RMS(Int)=    0.0000004977
 Iter  72:  RMS(Cart)=    0.0000000947 RMS(Int)=    0.0000004864
 Iter  73:  RMS(Cart)=    0.0000000923 RMS(Int)=    0.0000004755
 Iter  74:  RMS(Cart)=    0.0000000899 RMS(Int)=    0.0000004649
 Iter  75:  RMS(Cart)=    0.0000000876 RMS(Int)=    0.0000004545
 Iter  76:  RMS(Cart)=    0.0000000853 RMS(Int)=    0.0000004445
 Iter  77:  RMS(Cart)=    0.0000000832 RMS(Int)=    0.0000004347
 Iter  78:  RMS(Cart)=    0.0000000810 RMS(Int)=    0.0000004252
 Iter  79:  RMS(Cart)=    0.0000000790 RMS(Int)=    0.0000004159
 Iter  80:  RMS(Cart)=    0.0000000770 RMS(Int)=    0.0000004069
 Iter  81:  RMS(Cart)=    0.0000000750 RMS(Int)=    0.0000003981
 Iter  82:  RMS(Cart)=    0.0000000731 RMS(Int)=    0.0000003896
 Iter  83:  RMS(Cart)=    0.0000000713 RMS(Int)=    0.0000003813
 Iter  84:  RMS(Cart)=    0.0000000695 RMS(Int)=    0.0000003732
 Iter  85:  RMS(Cart)=    0.0000000678 RMS(Int)=    0.0000003653
 Iter  86:  RMS(Cart)=    0.0000000661 RMS(Int)=    0.0000003576
 Iter  87:  RMS(Cart)=    0.0000000644 RMS(Int)=    0.0000003502
 Iter  88:  RMS(Cart)=    0.0000000628 RMS(Int)=    0.0000003429
 Iter  89:  RMS(Cart)=    0.0000000613 RMS(Int)=    0.0000003358
 Iter  90:  RMS(Cart)=    0.0000000598 RMS(Int)=    0.0000003289
 Iter  91:  RMS(Cart)=    0.0000000583 RMS(Int)=    0.0000003222
 Iter  92:  RMS(Cart)=    0.0000000569 RMS(Int)=    0.0000003157
 Iter  93:  RMS(Cart)=    0.0000000555 RMS(Int)=    0.0000003093
 Iter  94:  RMS(Cart)=    0.0000000541 RMS(Int)=    0.0000003031
 Iter  95:  RMS(Cart)=    0.0000000528 RMS(Int)=    0.0000002970
 Iter  96:  RMS(Cart)=    0.0000000515 RMS(Int)=    0.0000002911
 Iter  97:  RMS(Cart)=    0.0000000503 RMS(Int)=    0.0000002854
 Iter  98:  RMS(Cart)=    0.0000000491 RMS(Int)=    0.0000002798
 Iter  99:  RMS(Cart)=    0.0000000479 RMS(Int)=    0.0000002743
 RMS(Cart) too big - taking linear step, building new B-matrix and trying again
Imposing constraints:
 Iter   0:  RMS(Cart)=    0.0000486708 RMS(Int)=    0.0000186608
 Iter   1:  RMS(Cart)=    0.0000259411 RMS(Int)=    0.0000110946
 Iter   2:  RMS(Cart)=    0.0000145845 RMS(Int)=    0.0000072674
 Iter   3:  RMS(Cart)=    0.0000086457 RMS(Int)=    0.0000052163
 Iter   4:  RMS(Cart)=    0.0000053807 RMS(Int)=    0.0000040656
 Iter   5:  RMS(Cart)=    0.0000034981 RMS(Int)=    0.0000034019
 Iter   6:  RMS(Cart)=    0.0000023687 RMS(Int)=    0.0000030097
 Iter   7:  RMS(Cart)=    0.0000016716 RMS(Int)=    0.0000027677
 Iter   8:  RMS(Cart)=    0.0000012338 RMS(Int)=    0.0000026075
 Iter   9:  RMS(Cart)=    0.0000009568 RMS(Int)=    0.0000024913
 Iter  10:  RMS(Cart)=    0.0000007809 RMS(Int)=    0.0000023989
 Iter  11:  RMS(Cart)=    0.0000006683 RMS(Int)=    0.0000023197
 Iter  12:  RMS(Cart)=    0.0000005948 RMS(Int)=    0.0000022482
 Iter  13:  RMS(Cart)=    0.0000005449 RMS(Int)=    0.0000021817
 Iter  14:  RMS(Cart)=    0.0000005093 RMS(Int)=    0.0000021186
 Iter  15:  RMS(Cart)=    0.0000004823 RMS(Int)=    0.0000020582
 Iter  16:  RMS(Cart)=    0.0000004606 RMS(Int)=    0.0000020001
 Iter  17:  RMS(Cart)=    0.0000004423 RMS(Int)=    0.0000019439
 Iter  18:  RMS(Cart)=    0.0000004262 RMS(Int)=    0.0000018896
 Iter  19:  RMS(Cart)=    0.0000004117 RMS(Int)=    0.0000018370
 Iter  20:  RMS(Cart)=    0.0000003983 RMS(Int)=    0.0000017861
 Iter  21:  RMS(Cart)=    0.0000003857 RMS(Int)=    0.0000017367
 Iter  22:  RMS(Cart)=    0.0000003738 RMS(Int)=    0.0000016889
 Iter  23:  RMS(Cart)=    0.0000003625 RMS(Int)=    0.0000016426
 Iter  24:  RMS(Cart)=    0.0000003517 RMS(Int)=    0.0000015977
 Iter  25:  RMS(Cart)=    0.0000003413 RMS(Int)=    0.0000015541
 Iter  26:  RMS(Cart)=    0.0000003313 RMS(Int)=    0.0000015119
 Iter  27:  RMS(Cart)=    0.0000003216 RMS(Int)=    0.0000014710
 Iter  28:  RMS(Cart)=    0.0000003123 RMS(Int)=    0.0000014313
 Iter  29:  RMS(Cart)=    0.0000003032 RMS(Int)=    0.0000013929
 Iter  30:  RMS(Cart)=    0.0000002945 RMS(Int)=    0.0000013556
 Iter  31:  RMS(Cart)=    0.0000002860 RMS(Int)=    0.0000013194
 Iter  32:  RMS(Cart)=    0.0000002778 RMS(Int)=    0.0000012843
 Iter  33:  RMS(Cart)=    0.0000002699 RMS(Int)=    0.0000012503
 Iter  34:  RMS(Cart)=    0.0000002622 RMS(Int)=    0.0000012173
 Iter  35:  RMS(Cart)=    0.0000002548 RMS(Int)=    0.0000011853
 Iter  36:  RMS(Cart)=    0.0000002476 RMS(Int)=    0.0000011542
 Iter  37:  RMS(Cart)=    0.0000002406 RMS(Int)=    0.0000011241
 Iter  38:  RMS(Cart)=    0.0000002338 RMS(Int)=    0.0000010948
 Iter  39:  RMS(Cart)=    0.0000002272 RMS(Int)=    0.0000010664
 Iter  40:  RMS(Cart)=    0.0000002209 RMS(Int)=    0.0000010389
 Iter  41:  RMS(Cart)=    0.0000002147 RMS(Int)=    0.0000010122
 Iter  42:  RMS(Cart)=    0.0000002087 RMS(Int)=    0.0000009863
CONVERGED
Small eigenvalue found = 7.511e-03
Small eigenvalue found = 1.762e-02
Small eigenvalue found = 2.193e-02
Small eigenvalue found = 2.740e-02
The first mode is                       ....   91
The number of degrees of freedom        ....   81
Storing new coordinates                 .... done

    -----------------------------------------------------------------
                    Redundant Internal Coordinates


    -----------------------------------------------------------------
         Definition                    Initial Value    Approx d2E/dq
    -----------------------------------------------------------------
      1. B(C   1,C   0)                  1.5333         0.369027   
      2. B(C   2,C   1)                  1.5471         0.350825   
      3. B(C   3,C   2)                  1.5492         0.348147   
      4. B(O   4,C   0)                  1.4668         0.422031   
      5. B(O   4,C   3)                  1.4789         0.403699   
      6. B(H   5,C   0)                  1.0919         0.357632   
      7. B(H   6,C   1)                  1.0958         0.352561   
      8. B(H   7,C   1)                  1.0951         0.353431   
      9. B(H   8,C   2)                  1.0945         0.354166   
     10. B(H   9,C   2)                  1.0966         0.351438   
     11. B(H  10,C   3)                  1.0954         0.353010   
     12. B(H  11,C   3)                  1.0939         0.354989   
     13. B(H  13,C  12)                  1.0967         0.351360   
     14. B(H  14,C  12)                  1.0974         0.350386   
     15. B(O  15,C   0)                  1.5525         0.307993   
     16. B(O  15,C  12)                  1.5538         0.306623   
     17. B(C  16,C  12)                  1.5533         0.342942   
     18. B(C  17,C  16)                  1.5329         0.369572   
     19. B(C  18,C  17)                  1.5477         0.350060   
     20. B(C  19,C  18)                  1.5489         0.348514   
     21. B(O  20,C  16)                  1.4666         0.422383   
     22. B(O  20,C  19)                  1.4777         0.405400   
     23. B(H  21,C  16)                  1.0918         0.357730   
     24. B(O  22,C  17)                  1.5530         0.307432   
     25. B(H  23,C  17)                  1.0961         0.352062   
     26. B(H  24,C  18)                  1.0954         0.353057   
     27. B(H  25,C  18)                  1.0966         0.351520   
     28. B(H  26,C  19)                  1.0962         0.351982   
     29. B(H  27,C  19)                  1.0937         0.355271   
     30. B(H  28,O  22)                  1.0952         0.316372   
     31. A(O   4,C   0,H   5)          107.0215         0.328541   
     32. A(C   1,C   0,O  15)          111.3021         0.348740   
     33. A(C   1,C   0,O   4)          104.2485         0.367935   
     34. A(O   4,C   0,O  15)          110.4735         0.354548   
     35. A(C   1,C   0,H   5)          114.4377         0.323302   
     36. A(H   5,C   0,O  15)          109.1576         0.312058   
     37. A(C   0,C   1,C   2)          101.6797         0.358729   
     38. A(C   2,C   1,H   7)          112.8319         0.320016   
     39. A(C   2,C   1,H   6)          110.6708         0.319888   
     40. A(C   0,C   1,H   6)          110.0677         0.322546   
     41. A(H   6,C   1,H   7)          108.3681         0.289027   
     42. A(C   0,C   1,H   7)          113.1242         0.322677   
     43. A(C   1,C   2,H   8)          112.8318         0.320125   
     44. A(C   1,C   2,C   3)          103.1267         0.355196   
     45. A(C   1,C   2,H   9)          110.0800         0.319721   
     46. A(C   3,C   2,H   9)          110.6152         0.319321   
     47. A(C   3,C   2,H   8)          112.4038         0.319725   
     48. A(H   8,C   2,H   9)          107.7728         0.288977   
     49. A(O   4,C   3,H  10)          109.1298         0.325449   
     50. A(C   2,C   3,H  10)          112.5253         0.319554   
     51. A(C   2,C   3,O   4)          106.5275         0.361529   
     52. A(O   4,C   3,H  11)          107.1237         0.325748   
     53. A(H  10,C   3,H  11)          108.8728         0.289284   
     54. A(C   2,C   3,H  11)          112.4566         0.319846   
     55. A(C   0,O   4,C   3)          108.3147         0.371320   
     56. A(H  14,C  12,C  16)          107.7501         0.318382   
     57. A(H  13,C  12,H  14)          108.2118         0.288481   
     58. A(H  13,C  12,O  15)          109.2117         0.310942   
     59. A(H  14,C  12,O  15)          110.4698         0.310803   
     60. A(O  15,C  12,C  16)          112.7202         0.344209   
     61. A(H  13,C  12,C  16)          108.3542         0.318526   
     62. A(C   0,O  15,C  12)          115.1654         0.336025   
     63. A(C  12,C  16,C  17)          111.2960         0.357435   
     64. A(C  12,C  16,O  20)          110.4665         0.363397   
     65. A(C  17,C  16,O  20)          104.2020         0.368081   
     66. A(C  12,C  16,H  21)          109.1489         0.319461   
     67. A(C  17,C  16,H  21)          114.4419         0.323395   
     68. A(O  20,C  16,H  21)          107.0872         0.328601   
     69. A(C  16,C  17,C  18)          101.6844         0.358686   
     70. A(C  16,C  17,O  22)          110.1049         0.348720   
     71. A(C  18,C  17,O  22)          110.6806         0.345551   
     72. A(C  16,C  17,H  23)          113.0789         0.322549   
     73. A(C  18,C  17,H  23)          112.8006         0.319700   
     74. A(O  22,C  17,H  23)          108.3931         0.311175   
     75. A(C  17,C  18,C  19)          103.0822         0.355128   
     76. A(C  17,C  18,H  24)          112.7529         0.319847   
     77. A(C  19,C  18,H  24)          112.4493         0.319616   
     78. A(C  17,C  18,H  25)          110.0981         0.319619   
     79. A(C  19,C  18,H  25)          110.6194         0.319388   
     80. A(H  24,C  18,H  25)          107.8247         0.288845   
     81. A(C  18,C  19,O  20)          106.5311         0.361854   
     82. A(C  18,C  19,H  26)          112.4591         0.319457   
     83. A(O  20,C  19,H  26)          109.1531         0.325518   
     84. A(C  18,C  19,H  27)          112.4267         0.319943   
     85. A(O  20,C  19,H  27)          107.1888         0.326016   
     86. A(H  26,C  19,H  27)          108.8850         0.289188   
     87. A(C  16,O  20,C  19)          108.3758         0.371642   
     88. A(C  17,O  22,H  28)          109.6440         0.303337   
     89. D(H   7,C   1,C   0,H   5)     82.1518         0.010890   
     90. D(C   2,C   1,C   0,O  15)     79.0868         0.010890   
     91. D(H   7,C   1,C   0,O  15)    -42.1868         0.010890   
     92. D(H   6,C   1,C   0,O   4)     77.3259         0.010890   
     93. D(H   6,C   1,C   0,O  15)   -163.5727         0.010890   
     94. D(H   6,C   1,C   0,H   5)    -39.2341         0.010890   
     95. D(H   7,C   1,C   0,O   4)   -161.2882         0.010890   
     96. D(C   2,C   1,C   0,O   4)    -40.0145         0.010890 C 
     97. D(C   2,C   1,C   0,H   5)   -156.5745         0.010890   
     98. D(H   9,C   2,C   1,H   6)    160.0776         0.009912   
     99. D(H   8,C   2,C   1,C   0)    156.5479         0.009912   
    100. D(H   8,C   2,C   1,H   6)     39.6446         0.009912   
    101. D(C   3,C   2,C   1,C   0)     35.0270         0.009912 C 
    102. D(H   8,C   2,C   1,H   7)    -81.9752         0.009912   
    103. D(H   9,C   2,C   1,C   0)    -83.0191         0.009912   
    104. D(C   3,C   2,C   1,H   6)    -81.8763         0.009912   
    105. D(H   9,C   2,C   1,H   7)     38.4578         0.009912   
    106. D(C   3,C   2,C   1,H   7)    156.5039         0.009912   
    107. D(H  11,C   3,C   2,H   9)   -143.4628         0.009774   
    108. D(O   4,C   3,C   2,H   8)   -140.0066         0.009774   
    109. D(O   4,C   3,C   2,H   9)     99.4739         0.009774   
    110. D(H  10,C   3,C   2,C   1)   -137.7432         0.009774   
    111. D(H  10,C   3,C   2,H   8)    100.4468         0.009774   
    112. D(H  10,C   3,C   2,H   9)    -20.0727         0.009774   
    113. D(H  11,C   3,C   2,C   1)     98.8667         0.009774   
    114. D(O   4,C   3,C   2,C   1)    -18.1967         0.009774 C 
    115. D(H  11,C   3,C   2,H   8)    -22.9433         0.009774   
    116. D(C   3,O   4,C   0,C   1)     29.5918         0.014035 C 
    117. D(C   3,O   4,C   0,H   5)    151.2015         0.014035   
    118. D(C   3,O   4,C   0,O  15)    -90.0712         0.014035   
    119. D(C   0,O   4,C   3,C   2)     -6.8732         0.012866 C 
    120. D(C   0,O   4,C   3,H  10)    114.8547         0.012866   
    121. D(C   0,O   4,C   3,H  11)   -127.4272         0.012866   
    122. D(C   0,O  15,C  12,C  16)   -180.0000         0.007733 C 
    123. D(C  12,O  15,C   0,O   4)   -165.0000         0.007793 C 
    124. D(C  12,O  15,C   0,H   5)    -47.5810         0.007793   
    125. D(C   0,O  15,C  12,H  14)     59.3966         0.007733   
    126. D(C   0,O  15,C  12,H  13)    -59.5076         0.007733   
    127. D(C  12,O  15,C   0,C   1)     79.6865         0.007793   
    128. D(C  17,C  16,C  12,H  13)     63.7103         0.009508   
    129. D(H  21,C  16,C  12,H  14)    179.5801         0.009508   
    130. D(C  17,C  16,C  12,O  15)   -175.3068         0.009508   
    131. D(O  20,C  16,C  12,H  13)    178.9588         0.009508   
    132. D(O  20,C  16,C  12,H  14)     62.0905         0.009508   
    133. D(O  20,C  16,C  12,O  15)    -60.0584         0.009508 C 
    134. D(C  17,C  16,C  12,H  14)    -53.1580         0.009508   
    135. D(H  21,C  16,C  12,H  13)    -63.5516         0.009508   
    136. D(H  21,C  16,C  12,O  15)     57.4313         0.009508   
    137. D(C  18,C  17,C  16,C  12)     79.0418         0.010920   
    138. D(C  18,C  17,C  16,O  20)    -40.0209         0.010920 C 
    139. D(C  18,C  17,C  16,H  21)   -156.6331         0.010920   
    140. D(O  22,C  17,C  16,C  12)   -163.5883         0.010920   
    141. D(O  22,C  17,C  16,O  20)     77.3490         0.010920   
    142. D(O  22,C  17,C  16,H  21)    -39.2632         0.010920   
    143. D(H  23,C  17,C  16,C  12)    -42.1746         0.010920   
    144. D(H  23,C  17,C  16,O  20)   -161.2373         0.010920   
    145. D(H  23,C  17,C  16,H  21)     82.1505         0.010920   
    146. D(H  24,C  18,C  17,H  23)    -82.0134         0.009873   
    147. D(C  19,C  18,C  17,O  22)    -81.8818         0.009873   
    148. D(C  19,C  18,C  17,H  23)    156.4810         0.009873   
    149. D(H  24,C  18,C  17,C  16)    156.5766         0.009873   
    150. D(C  19,C  18,C  17,C  16)     35.0709         0.009873 C 
    151. D(H  24,C  18,C  17,O  22)     39.6239         0.009873   
    152. D(H  25,C  18,C  17,C  16)    -82.9644         0.009873   
    153. D(H  25,C  18,C  17,O  22)    160.0829         0.009873   
    154. D(H  25,C  18,C  17,H  23)     38.4456         0.009873   
    155. D(H  27,C  19,C  18,H  25)   -143.4435         0.009793   
    156. D(O  20,C  19,C  18,H  24)   -139.9518         0.009793   
    157. D(O  20,C  19,C  18,H  25)     99.4284         0.009793   
    158. D(H  26,C  19,C  18,C  17)   -137.7802         0.009793   
    159. D(H  26,C  19,C  18,H  24)    100.5088         0.009793   
    160. D(H  26,C  19,C  18,H  25)    -20.1110         0.009793   
    161. D(H  27,C  19,C  18,C  17)     98.8873         0.009793   
    162. D(O  20,C  19,C  18,C  17)    -18.2408         0.009793 C 
    163. D(H  27,C  19,C  18,H  24)    -22.8237         0.009793   
    164. D(C  19,O  20,C  16,C  12)    -90.0410         0.014058   
    165. D(C  19,O  20,C  16,C  17)     29.5846         0.014058 C 
    166. D(C  19,O  20,C  16,H  21)    151.2070         0.014058   
    167. D(C  16,O  20,C  19,C  18)     -6.8351         0.012972 C 
    168. D(C  16,O  20,C  19,H  26)    114.8287         0.012972   
    169. D(C  16,O  20,C  19,H  27)   -127.3902         0.012972   
    170. D(H  28,O  22,C  17,C  16)    -55.8319         0.007768   
    171. D(H  28,O  22,C  17,C  18)     55.8030         0.007768   
    172. D(H  28,O  22,C  17,H  23)    179.9998         0.007768   
    -----------------------------------------------------------------

Number of atoms                         .... 29
Number of degrees of freedom            .... 172

Time needed for optimization step       :     2.56 sec

         *************************************************************
         *                GEOMETRY OPTIMIZATION CYCLE   1            *
         *************************************************************
---------------------------------
CARTESIAN COORDINATES (ANGSTROEM)
---------------------------------
  C    -21.048089   26.221908   46.251108
  C    -20.360984   27.557826   45.943954
  C    -20.328927   28.221998   47.340875
  C    -20.110014   27.022090   48.296008
  O    -20.473109   25.807034   47.535154
  H    -20.833150   25.427827   45.533179
  H    -19.344000   27.381703   45.575967
  H    -20.897943   28.156783   45.200889
  H    -19.542869   28.977949   47.433782
  H    -21.288888   28.710097   47.547823
  H    -20.733004   27.082239   49.195005
  H    -19.064020   26.913045   48.597013
  C    -23.353055   26.472139   45.026092
  H    -22.979025   27.325161   44.447143
  H    -23.189074   25.560167   44.438044
  O    -22.586070   26.394080   46.375097
  C    -24.885070   26.644011   45.216085
  C    -25.621041   26.601054   43.872065
  C    -25.669917   25.080071   43.589944
  C    -25.841899   24.466952   45.001893
  O    -25.439001   25.511908   45.965980
  H    -25.074153   27.542955   45.806144
  O    -27.055088   27.175932   44.030080
  H    -25.108067   27.163153   43.083118
  H    -26.482881   24.801061   42.910905
  H    -24.726882   24.750179   43.137937
  H    -25.216834   23.578989   45.151839
  H    -26.881884   24.208856   45.220852
  H    -27.587062   26.627831   44.815027

----------------------------
CARTESIAN COORDINATES (A.U.)
----------------------------
  NO LB      ZA    FRAG     MASS         X           Y           Z
   0 C     6.0000    0    12.011  -39.775123   49.552226   87.401927
   1 C     6.0000    0    12.011  -38.476683   52.076745   86.821490
   2 C     6.0000    0    12.011  -38.416104   53.331847   89.461289
   3 C     6.0000    0    12.011  -38.002419   51.064349   91.266228
   4 O     8.0000    0    15.999  -38.688568   48.768226   89.828423
   5 H     1.0000    0     1.008  -39.368949   48.051629   86.045239
   6 H     1.0000    0     1.008  -36.554863   51.743921   86.126096
   7 H     1.0000    0     1.008  -39.491390   53.208608   85.417302
   8 H     1.0000    0     1.008  -36.930670   54.760388   89.636858
   9 H     1.0000    0     1.008  -40.230168   54.254220   89.852363
  10 H     1.0000    0     1.008  -39.179699   51.178016   92.965086
  11 H     1.0000    0     1.008  -36.025777   50.858284   91.835045
  12 C     6.0000    0    12.011  -44.130879   50.025093   85.086982
  13 H     1.0000    0     1.008  -43.424064   51.637070   83.992927
  14 H     1.0000    0     1.008  -43.820999   48.301715   83.975733
  15 O     8.0000    0    15.999  -42.681487   49.877584   87.636233
  16 C     6.0000    0    12.011  -47.025968   50.349884   85.446018
  17 C     6.0000    0    12.011  -48.416750   50.268707   82.906187
  18 C     6.0000    0    12.011  -48.509113   47.394466   82.373055
  19 C     6.0000    0    12.011  -48.834112   46.235839   85.041254
  20 O     8.0000    0    15.999  -48.072745   48.210520   86.863114
  21 H     1.0000    0     1.008  -47.383282   52.048642   86.561067
  22 O     8.0000    0    15.999  -51.126707   51.355069   83.204792
  23 H     1.0000    0     1.008  -47.447371   51.330920   81.415294
  24 H     1.0000    0     1.008  -50.045393   46.867212   81.089859
  25 H     1.0000    0     1.008  -46.727036   46.771060   81.518888
  26 H     1.0000    0     1.008  -47.652910   44.557832   85.324611
  27 H     1.0000    0     1.008  -50.799399   45.748108   85.455025
  28 H     1.0000    0     1.008  -52.131992   50.319308   84.688128

--------------------------------
INTERNAL COORDINATES (ANGSTROEM)
--------------------------------
 C      0   0   0     0.000000000000     0.00000000     0.00000000
 C      1   0   0     1.533334275362     0.00000000     0.00000000
 C      2   1   0     1.547103422529   101.67907390     0.00000000
 C      3   2   1     1.549188819996   103.12737509    35.02687180
 O      1   2   3     1.466801281701   104.24948604   319.98542309
 H      1   2   3     1.091872245274   114.43876658   203.42640133
 H      2   1   3     1.095759553917   110.06782188   117.34000099
 H      2   1   3     1.095088580892   113.12442239   238.72597460
 H      3   2   1     1.094523183857   112.83161078   156.54780790
 H      3   2   1     1.096628013503   110.07982737   276.98070077
 H      4   3   2     1.095413164062   112.52534669   222.25678475
 H      4   3   2     1.093891219455   112.45670684    98.86663270
 C      1   2   3     2.622241407651   102.54679183   111.80818423
 H     13   1   2     1.096688652262    91.20456664    15.42220255
 H     13   1   2     1.097444303826    92.27589340   123.70349152
 O      1   2   3     1.552547583812   111.30349807    79.08752829
 C     13   1   2     1.553289412827   145.12335249   249.91337494
 C     17  13   1     1.532932157664   111.29646462   184.68114651
 C     18  17  13     1.547696998769   101.68419693    79.04210575
 C     19  18  17     1.548901869067   103.08236931    35.07089339
 O     17  13   1     1.466574239512   110.46634721   299.93028497
 H     17  13   1     1.091797600290   109.14843454    57.41892593
 O     18  17  13     1.553043785603   110.10493766   196.41185333
 H     18  17  13     1.096145063393   113.07893298   317.82557719
 H     19  18  17     1.095377104015   112.75287035   156.57656294
 H     19  18  17     1.096564179608   110.09803221   277.03556447
 H     20  19  18     1.096206641104   112.45907899   222.21984639
 H     20  19  18     1.093674997428   112.42673003    98.88726683
 H     23  18  17     1.095241069354   109.64395727   304.16819749

---------------------------
INTERNAL COORDINATES (A.U.)
---------------------------
 C      0   0   0     0.000000000000     0.00000000     0.00000000
 C      1   0   0     2.897581852189     0.00000000     0.00000000
 C      2   1   0     2.923601769431   101.67907390     0.00000000
 C      3   2   1     2.927542599525   103.12737509    35.02687180
 O      1   2   3     2.771852715300   104.24948604   319.98542309
 H      1   2   3     2.063339516798   114.43876658   203.42640133
 H      2   1   3     2.070685465531   110.06782188   117.34000099
 H      2   1   3     2.069417510270   113.12442239   238.72597460
 H      3   2   1     2.068349064717   112.83161078   156.54780790
 H      3   2   1     2.072326616307   110.07982737   276.98070077
 H      4   3   2     2.070030883569   112.52534669   222.25678475
 H      4   3   2     2.067154825070   112.45670684    98.86663270
 C      1   2   3     4.955318117489   102.54679183   111.80818423
 H     13   1   2     2.072441206954    91.20456664    15.42220255
 H     13   1   2     2.073869181463    92.27589340   123.70349152
 O      1   2   3     2.933889743286   111.30349807    79.08752829
 C     13   1   2     2.935291596962   145.12335249   249.91337494
 C     17  13   1     2.896821959866   111.29646462   184.68114651
 C     18  17  13     2.924723465966   101.68419693    79.04210575
 C     19  18  17     2.927000340856   103.08236931    35.07089339
 O     17  13   1     2.771423667741   110.46634721   299.93028497
 H     17  13   1     2.063198458221   109.14843454    57.41892593
 O     18  17  13     2.934827428778   110.10493766   196.41185333
 H     18  17  13     2.071413972862   113.07893298   317.82557719
 H     19  18  17     2.069962739956   112.75287035   156.57656294
 H     19  18  17     2.072205987728   110.09803221   277.03556447
 H     20  19  18     2.071530337872   112.45907899   222.21984639
 H     20  19  18     2.066746224657   112.42673003    98.88726683
 H     23  18  17     2.069705671702   109.64395727   304.16819749

---------------------
BASIS SET INFORMATION
---------------------
There are 3 groups of distinct atoms

 Group   1 Type C   : 10s4p contracted to 3s2p pattern {631/31}
 Group   2 Type O   : 10s4p contracted to 3s2p pattern {631/31}
 Group   3 Type H   : 4s contracted to 2s pattern {31}

Atom   0C    basis set group =>   1
Atom   1C    basis set group =>   1
Atom   2C    basis set group =>   1
Atom   3C    basis set group =>   1
Atom   4O    basis set group =>   2
Atom   5H    basis set group =>   3
Atom   6H    basis set group =>   3
Atom   7H    basis set group =>   3
Atom   8H    basis set group =>   3
Atom   9H    basis set group =>   3
Atom  10H    basis set group =>   3
Atom  11H    basis set group =>   3
Atom  12C    basis set group =>   1
Atom  13H    basis set group =>   3
Atom  14H    basis set group =>   3
Atom  15O    basis set group =>   2
Atom  16C    basis set group =>   1
Atom  17C    basis set group =>   1
Atom  18C    basis set group =>   1
Atom  19C    basis set group =>   1
Atom  20O    basis set group =>   2
Atom  21H    basis set group =>   3
Atom  22O    basis set group =>   2
Atom  23H    basis set group =>   3
Atom  24H    basis set group =>   3
Atom  25H    basis set group =>   3
Atom  26H    basis set group =>   3
Atom  27H    basis set group =>   3
Atom  28H    basis set group =>   3
------------------------------------------------------------------------------
                           ORCA GTO INTEGRAL CALCULATION
------------------------------------------------------------------------------

                         BASIS SET STATISTICS AND STARTUP INFO

 # of primitive gaussian shells          ...  246
 # of primitive gaussian functions       ...  350
 # of contracted shells                  ...   97
 # of contracted basis functions         ...  149
 Highest angular momentum                ...    1
 Maximum contraction depth               ...    6
 Integral package used                   ... LIBINT
 Integral threshhold            Thresh   ...  2.500e-11
 Primitive cut-off              TCut     ...  2.500e-12


------------------------------ INTEGRAL EVALUATION ----------------------------


 * One electron integrals 
 Pre-screening matrix                    ... done
 Shell pair data                         ... done (   0.002 sec)

-------------------------------------------------------------------------------
                                 ORCA SCF
-------------------------------------------------------------------------------

------------
SCF SETTINGS
------------
Hamiltonian:
 Density Functional     Method          .... DFT(GTOs)
 Exchange Functional    Exchange        .... B88
   X-Alpha parameter    XAlpha          ....  0.666667
   Becke's b parameter  XBeta           ....  0.004200
 Correlation Functional Correlation     .... LYP
 LDA part of GGA corr.  LDAOpt          .... VWN-5
 Gradients option       PostSCFGGA      .... off
 Hybrid DFT is turned on
   Fraction HF Exchange ScalHFX         ....  0.200000
   Scaling of DF-GGA-X  ScalDFX         ....  0.720000
   Scaling of DF-GGA-C  ScalDFC         ....  0.810000
   Scaling of DF-LDA-C  ScalLDAC        ....  1.000000
   Perturbative correction              ....  0.000000
   Density functional embedding theory  .... OFF
   NL short-range parameter             ....  4.800000


General Settings:
 Integral files         IntName         .... project_8052/ensemble_195_180
 Hartree-Fock type      HFTyp           .... RHF
 Total Charge           Charge          ....    0
 Multiplicity           Mult            ....    1
 Number of Electrons    NEL             ....  102
 Basis Dimension        Dim             ....  149
 Nuclear Repulsion      ENuc            ....    842.9614853502 Eh

Convergence Acceleration:
 DIIS                   CNVDIIS         .... on
   Start iteration      DIISMaxIt       ....    12
   Startup error        DIISStart       ....  0.200000
   # of expansion vecs  DIISMaxEq       ....     5
   Bias factor          DIISBfac        ....   1.050
   Max. coefficient     DIISMaxC        ....  10.000
 Newton-Raphson         CNVNR           .... off
 SOSCF                  CNVSOSCF        .... on
   Start iteration      SOSCFMaxIt      ....   150
   Startup grad/error   SOSCFStart      ....  0.003300
 Level Shifting         CNVShift        .... on
   Level shift para.    LevelShift      ....    0.2500
   Turn off err/grad.   ShiftErr        ....    0.0010
 Zerner damping         CNVZerner       .... off
 Static damping         CNVDamp         .... on
   Fraction old density DampFac         ....    0.7000
   Max. Damping (<1)    DampMax         ....    0.9800
   Min. Damping (>=0)   DampMin         ....    0.0000
   Turn off err/grad.   DampErr         ....    0.1000
 Fernandez-Rico         CNVRico         .... off

SCF Procedure:
 Maximum # iterations   MaxIter         ....   125
 SCF integral mode      SCFMode         .... Direct
   Integral package                     .... LIBINT
 Reset frequency        DirectResetFreq ....    20
 Integral Threshold     Thresh          ....  2.500e-11 Eh
 Primitive CutOff       TCut            ....  2.500e-12 Eh

Convergence Tolerance:
 Convergence Check Mode ConvCheckMode   .... Total+1el-Energy
 Convergence forced     ConvForced      .... 0
 Energy Change          TolE            ....  1.000e-08 Eh
 1-El. energy change                    ....  1.000e-05 Eh
 Orbital Gradient       TolG            ....  1.000e-05
 Orbital Rotation angle TolX            ....  1.000e-05
 DIIS Error             TolErr          ....  5.000e-07


Diagonalization of the overlap matrix:
Smallest eigenvalue                        ... 4.081e-03
Time for diagonalization                   ...    0.006 sec
Threshold for overlap eigenvalues          ... 1.000e-08
Number of eigenvalues below threshold      ... 0
Time for construction of square roots      ...    2.205 sec
Total time needed                          ...    2.212 sec

-------------------
DFT GRID GENERATION
-------------------

General Integration Accuracy     IntAcc      ...  4.340
Radial Grid Type                 RadialGrid  ... Gauss-Chebyshev
Angular Grid (max. acc.)         AngularGrid ... Lebedev-110
Angular grid pruning method      GridPruning ... 3 (G Style)
Weight generation scheme         WeightScheme... Becke
Basis function cutoff            BFCut       ...    1.0000e-11
Integration weight cutoff        WCut        ...    1.0000e-14
Grids for H and He will be reduced by one unit

# of grid points (after initial pruning)     ...  34472 (   0.0 sec)
# of grid points (after weights+screening)   ...  31125 (   0.2 sec)
nearest neighbour list constructed           ...    0.0 sec
Grid point re-assignment to atoms done       ...    0.0 sec
Grid point division into batches done        ...    0.0 sec
Reduced shell lists constructed in    0.4 sec

Total number of grid points                  ...    31125
Total number of batches                      ...      500
Average number of points per batch           ...       62
Average number of grid points per atom       ...     1073
Average number of shells per batch           ...    55.46 (57.18%)
Average number of basis functions per batch  ...    89.86 (60.31%)
Average number of large shells per batch     ...    39.44 (71.12%)
Average number of large basis fcns per batch ...    65.07 (72.41%)
Maximum spatial batch extension              ...  19.44, 20.09, 20.38 au
Average spatial batch extension              ...   3.29,  3.47,  3.53 au

Time for grid setup =    3.113 sec

------------------------------
INITIAL GUESS: MODEL POTENTIAL
------------------------------
Loading Hartree-Fock densities                     ... done
Calculating cut-offs                               ... done
Setting up the integral package                    ... done
Initializing the effective Hamiltonian             ... done
Starting the Coulomb interaction                   ... done (   0.3 sec)
Reading the grid                                   ... done
Mapping shells                                     ... done
Starting the XC term evaluation                    ... done (   0.4 sec)
  promolecular density results
     # of electrons  =    101.983438354
     EX              =    -83.660185120
     EC              =     -3.455249913
     EX+EC           =    -87.115435033
Transforming the Hamiltonian                       ... done (   0.4 sec)
Diagonalizing the Hamiltonian                      ... done (   0.0 sec)
Back transforming the eigenvectors                 ... done (   0.0 sec)
Now organizing SCF variables                       ... done
                      ------------------
                      INITIAL GUESS DONE (   5.0 sec)
                      ------------------
--------------
SCF ITERATIONS
--------------
ITER       Energy         Delta-E        Max-DP      RMS-DP      [F,P]     Damp
               ***  Starting incremental Fock matrix formation  ***
  0   -652.5238894906   0.000000000000 0.07553796  0.00317576  0.2379333 0.7000
  1   -652.6680765503  -0.144187059747 0.04173271  0.00216517  0.0922786 0.7000
                               ***Turning on DIIS***
  2   -652.7213446065  -0.053268056199 0.06322235  0.00339304  0.0326797 0.0000
  3   -652.8100052039  -0.088660597353 0.03017286  0.00144926  0.0515910 0.0000
  4   -652.8276682552  -0.017663051306 0.00841600  0.00044102  0.0115430 0.0000
  5   -652.8287651620  -0.001096906794 0.00271008  0.00013222  0.0041119 0.0000
                      *** Initiating the SOSCF procedure ***
                           *** Shutting down DIIS ***
                      *** Re-Reading the Fockian *** 
                      *** Removing any level shift *** 
ITER      Energy       Delta-E        Grad      Rot      Max-DP    RMS-DP
  6   -652.82883316  -0.0000679955  0.000218  0.000218  0.000871  0.000057
               *** Restarting incremental Fock matrix formation ***
  7   -652.82883603  -0.0000028719  0.000140  0.000278  0.000913  0.000034
  8   -652.82883380   0.0000022249  0.000225  0.000188  0.000561  0.000021
  9   -652.82883738  -0.0000035712  0.000025  0.000043  0.000207  0.000006
 10   -652.82883732   0.0000000523  0.000039  0.000026  0.000127  0.000004
 11   -652.82883743  -0.0000001091  0.000005  0.000007  0.000025  0.000001
 12   -652.82883743   0.0000000013  0.000008  0.000005  0.000017  0.000001
                  ***Gradient check signals convergence***
              ***Rediagonalizing the Fockian in SOSCF/NRSCF***

               *****************************************************
               *                     SUCCESS                       *
               *           SCF CONVERGED AFTER  13 CYCLES          *
               *****************************************************

Setting up the final grid:

General Integration Accuracy     IntAcc      ...  4.670
Radial Grid Type                 RadialGrid  ... Gauss-Chebyshev
Angular Grid (max. acc.)         AngularGrid ... Lebedev-302
Angular grid pruning method      GridPruning ... 3 (G Style)
Weight generation scheme         WeightScheme... Becke
Basis function cutoff            BFCut       ...    1.0000e-11
Integration weight cutoff        WCut        ...    1.0000e-14
Grids for H and He will be reduced by one unit

# of grid points (after initial pruning)     ... 135060 (   0.1 sec)
# of grid points (after weights+screening)   ... 119447 (   0.8 sec)
nearest neighbour list constructed           ...    0.0 sec
Grid point re-assignment to atoms done       ...    0.0 sec
Grid point division into batches done        ...    0.5 sec
Reduced shell lists constructed in    2.0 sec

Total number of grid points                  ...   119447
Total number of batches                      ...     1882
Average number of points per batch           ...       63
Average number of grid points per atom       ...     4119
Average number of shells per batch           ...    50.36 (51.91%)
Average number of basis functions per batch  ...    81.88 (54.96%)
Average number of large shells per batch     ...    35.23 (69.97%)
Average number of large basis fcns per batch ...    58.33 (71.23%)
Maximum spatial batch extension              ...  17.65, 19.24, 17.40 au
Average spatial batch extension              ...   2.16,  2.28,  2.28 au

Final grid set up in    6.2 sec
Final integration                            ... done (  33.0 sec)
Change in XC energy                          ...    -0.000697663
Integrated number of electrons               ...   102.000090142
Previous integrated no of electrons          ...   101.996315349

----------------
TOTAL SCF ENERGY
----------------

Total Energy       :         -652.82953510 Eh          -17764.39477 eV

Components:
Nuclear Repulsion  :          842.96148535 Eh           22938.14817 eV
Electronic Energy  :        -1495.79102045 Eh          -40702.54294 eV
One Electron Energy:        -2563.69663809 Eh          -69761.73214 eV
Two Electron Energy:         1067.90561764 Eh           29059.18920 eV

Virial components:
Potential Energy   :        -1301.72952728 Eh          -35421.86125 eV
Kinetic Energy     :          648.89999219 Eh           17657.46648 eV
Virial Ratio       :            2.00605570


DFT components:
N(Alpha)           :       51.000045071236 electrons
N(Beta)            :       51.000045071236 electrons
N(Total)           :      102.000090142473 electrons
E(X)               :      -67.582755444714 Eh       
E(C)               :       -4.067272397178 Eh       
E(XC)              :      -71.650027841892 Eh       
DFET-embed. en.    :        0.000000000000 Eh       

---------------
SCF CONVERGENCE
---------------

  Last Energy change         ...   -2.2218e-09  Tolerance :   1.0000e-08
  Last MAX-Density change    ...    2.8742e-06  Tolerance :   1.0000e-07
  Last RMS-Density change    ...    1.0028e-07  Tolerance :   5.0000e-09
  Last Orbital Gradient      ...    3.5688e-07  Tolerance :   1.0000e-05
  Last Orbital Rotation      ...    6.5755e-07  Tolerance :   1.0000e-05

             **** THE GBW FILE WAS UPDATED (project_8052/ensemble_195_180.gbw) ****
             **** DENSITY FILE WAS UPDATED (project_8052/ensemble_195_180.scfp) ****
             **** ENERGY FILE WAS UPDATED (project_8052/ensemble_195_180.en.tmp) ****
             **** THE GBW FILE WAS UPDATED (project_8052/ensemble_195_180.gbw) ****
             **** DENSITY FILE WAS UPDATED (project_8052/ensemble_195_180.scfp) ****
----------------
ORBITAL ENERGIES
----------------

  NO   OCC          E(Eh)            E(eV) 
   0   2.0000     -19.149577      -521.0865 
   1   2.0000     -19.148365      -521.0535 
   2   2.0000     -19.140345      -520.8353 
   3   2.0000     -19.138839      -520.7943 
   4   2.0000     -10.282734      -279.8074 
   5   2.0000     -10.253721      -279.0179 
   6   2.0000     -10.241810      -278.6938 
   7   2.0000     -10.238655      -278.6080 
   8   2.0000     -10.232097      -278.4295 
   9   2.0000     -10.224425      -278.2207 
  10   2.0000     -10.197768      -277.4954 
  11   2.0000     -10.190620      -277.3009 
  12   2.0000     -10.186814      -277.1973 
  13   2.0000      -1.032373       -28.0923 
  14   2.0000      -1.028557       -27.9885 
  15   2.0000      -0.968157       -26.3449 
  16   2.0000      -0.958650       -26.0862 
  17   2.0000      -0.791557       -21.5394 
  18   2.0000      -0.785654       -21.3787 
  19   2.0000      -0.766558       -20.8591 
  20   2.0000      -0.729590       -19.8532 
  21   2.0000      -0.673082       -18.3155 
  22   2.0000      -0.603691       -16.4273 
  23   2.0000      -0.597966       -16.2715 
  24   2.0000      -0.585820       -15.9410 
  25   2.0000      -0.583316       -15.8728 
  26   2.0000      -0.514511       -14.0005 
  27   2.0000      -0.504813       -13.7367 
  28   2.0000      -0.494782       -13.4637 
  29   2.0000      -0.487458       -13.2644 
  30   2.0000      -0.465530       -12.6677 
  31   2.0000      -0.449569       -12.2334 
  32   2.0000      -0.443885       -12.0787 
  33   2.0000      -0.436628       -11.8813 
  34   2.0000      -0.423760       -11.5311 
  35   2.0000      -0.409060       -11.1311 
  36   2.0000      -0.401396       -10.9226 
  37   2.0000      -0.391214       -10.6455 
  38   2.0000      -0.376590       -10.2475 
  39   2.0000      -0.371847       -10.1185 
  40   2.0000      -0.361934        -9.8487 
  41   2.0000      -0.357993        -9.7415 
  42   2.0000      -0.352453        -9.5907 
  43   2.0000      -0.325665        -8.8618 
  44   2.0000      -0.314329        -8.5533 
  45   2.0000      -0.310087        -8.4379 
  46   2.0000      -0.299652        -8.1539 
  47   2.0000      -0.270164        -7.3515 
  48   2.0000      -0.260263        -7.0821 
  49   2.0000      -0.248560        -6.7637 
  50   2.0000      -0.244119        -6.6428 
  51   0.0000       0.033045         0.8992 
  52   0.0000       0.060421         1.6441 
  53   0.0000       0.071142         1.9359 
  54   0.0000       0.087259         2.3744 
  55   0.0000       0.099164         2.6984 
  56   0.0000       0.103227         2.8090 
  57   0.0000       0.115396         3.1401 
  58   0.0000       0.116660         3.1745 
  59   0.0000       0.127231         3.4621 
  60   0.0000       0.133047         3.6204 
  61   0.0000       0.145450         3.9579 
  62   0.0000       0.147690         4.0188 
  63   0.0000       0.154633         4.2078 
  64   0.0000       0.156316         4.2536 
  65   0.0000       0.158809         4.3214 
  66   0.0000       0.162843         4.4312 
  67   0.0000       0.174331         4.7438 
  68   0.0000       0.178488         4.8569 
  69   0.0000       0.181625         4.9423 
  70   0.0000       0.206620         5.6224 
  71   0.0000       0.219496         5.9728 
  72   0.0000       0.221149         6.0178 
  73   0.0000       0.229433         6.2432 
  74   0.0000       0.234827         6.3900 
  75   0.0000       0.240538         6.5454 
  76   0.0000       0.260893         7.0993 
  77   0.0000       0.268533         7.3071 
  78   0.0000       0.277522         7.5518 
  79   0.0000       0.289207         7.8697 
  80   0.0000       0.298673         8.1273 
  81   0.0000       0.523421        14.2430 
  82   0.0000       0.532816        14.4987 
  83   0.0000       0.543853        14.7990 
  84   0.0000       0.548616        14.9286 
  85   0.0000       0.553815        15.0701 
  86   0.0000       0.561236        15.2720 
  87   0.0000       0.569851        15.5064 
  88   0.0000       0.582213        15.8428 
  89   0.0000       0.586020        15.9464 
  90   0.0000       0.596190        16.2231 
  91   0.0000       0.602417        16.3926 
  92   0.0000       0.620319        16.8797 
  93   0.0000       0.627323        17.0703 
  94   0.0000       0.640825        17.4377 
  95   0.0000       0.641861        17.4659 
  96   0.0000       0.648263        17.6401 
  97   0.0000       0.670390        18.2422 
  98   0.0000       0.687262        18.7013 
  99   0.0000       0.698871        19.0172 
 100   0.0000       0.713939        19.4273 
 101   0.0000       0.746408        20.3108 
 102   0.0000       0.769882        20.9496 
 103   0.0000       0.808351        21.9963 
 104   0.0000       0.814439        22.1620 
 105   0.0000       0.823937        22.4205 
 106   0.0000       0.835698        22.7405 
 107   0.0000       0.851430        23.1686 
 108   0.0000       0.854901        23.2630 
 109   0.0000       0.861307        23.4374 
 110   0.0000       0.873222        23.7616 
 111   0.0000       0.891069        24.2472 
 112   0.0000       0.902496        24.5582 
 113   0.0000       0.904705        24.6183 
 114   0.0000       0.911740        24.8097 
 115   0.0000       0.926314        25.2063 
 116   0.0000       0.937165        25.5016 
 117   0.0000       0.943372        25.6705 
 118   0.0000       0.946397        25.7528 
 119   0.0000       0.953605        25.9489 
 120   0.0000       0.969828        26.3904 
 121   0.0000       0.985504        26.8169 
 122   0.0000       1.009904        27.4809 
 123   0.0000       1.027652        27.9638 
 124   0.0000       1.041141        28.3309 
 125   0.0000       1.056701        28.7543 
 126   0.0000       1.064858        28.9763 
 127   0.0000       1.091787        29.7090 
 128   0.0000       1.098867        29.9017 
 129   0.0000       1.151849        31.3434 
 130   0.0000       1.193794        32.4848 
 131   0.0000       1.217893        33.1405 
 132   0.0000       1.268448        34.5162 
 133   0.0000       1.289942        35.1011 
 134   0.0000       1.323008        36.0009 
 135   0.0000       1.336747        36.3747 
 136   0.0000       1.355047        36.8727 
 137   0.0000       1.397252        38.0211 
 138   0.0000       1.410852        38.3912 
 139   0.0000       1.435804        39.0702 
 140   0.0000       1.498532        40.7771 
 141   0.0000       1.557564        42.3835 
 142   0.0000       1.603710        43.6392 
 143   0.0000       1.671104        45.4731 
 144   0.0000       1.705095        46.3980 
 145   0.0000       1.829072        49.7716 
 146   0.0000       1.900552        51.7166 
 147   0.0000       2.058425        56.0126 
 148   0.0000       2.094120        56.9839 

                    ********************************
                    * MULLIKEN POPULATION ANALYSIS *
                    ********************************

-----------------------
MULLIKEN ATOMIC CHARGES
-----------------------
   0 C :    0.302472
   1 C :   -0.277296
   2 C :   -0.297665
   3 C :   -0.002015
   4 O :   -0.501503
   5 H :    0.140933
   6 H :    0.146923
   7 H :    0.145753
   8 H :    0.141380
   9 H :    0.162886
  10 H :    0.156275
  11 H :    0.141009
  12 C :   -0.012226
  13 H :    0.122689
  14 H :    0.126189
  15 O :   -0.498788
  16 C :    0.067253
  17 C :    0.071974
  18 C :   -0.311214
  19 C :   -0.022730
  20 O :   -0.499843
  21 H :    0.174892
  22 O :   -0.594097
  23 H :    0.154045
  24 H :    0.167296
  25 H :    0.145925
  26 H :    0.153662
  27 H :    0.141420
  28 H :    0.354399
Sum of atomic charges:    0.0000000

--------------------------------
MULLIKEN REDUCED ORBITAL CHARGES
--------------------------------
  0 C s       :     3.227834  s :     3.227834
      pz      :     0.789231  p :     2.469693
      px      :     0.695926
      py      :     0.984537
  1 C s       :     3.304540  s :     3.304540
      pz      :     0.987776  p :     2.972757
      px      :     1.035194
      py      :     0.949787
  2 C s       :     3.314897  s :     3.314897
      pz      :     0.904587  p :     2.982767
      px      :     1.085891
      py      :     0.992289
  3 C s       :     3.261624  s :     3.261624
      pz      :     0.943575  p :     2.740391
      px      :     1.055806
      py      :     0.741010
  4 O s       :     3.949767  s :     3.949767
      pz      :     1.318946  p :     4.551736
      px      :     1.714738
      py      :     1.518051
  5 H s       :     0.859067  s :     0.859067
  6 H s       :     0.853077  s :     0.853077
  7 H s       :     0.854247  s :     0.854247
  8 H s       :     0.858620  s :     0.858620
  9 H s       :     0.837114  s :     0.837114
 10 H s       :     0.843725  s :     0.843725
 11 H s       :     0.858991  s :     0.858991
 12 C s       :     3.277244  s :     3.277244
      pz      :     0.791590  p :     2.734981
      px      :     0.896719
      py      :     1.046672
 13 H s       :     0.877311  s :     0.877311
 14 H s       :     0.873811  s :     0.873811
 15 O s       :     3.955243  s :     3.955243
      pz      :     1.418855  p :     4.543545
      px      :     1.248033
      py      :     1.876657
 16 C s       :     3.284476  s :     3.284476
      pz      :     0.873855  p :     2.648271
      px      :     0.874607
      py      :     0.899810
 17 C s       :     3.300131  s :     3.300131
      pz      :     0.975449  p :     2.627895
      px      :     0.738438
      py      :     0.914008
 18 C s       :     3.320659  s :     3.320659
      pz      :     0.980684  p :     2.990554
      px      :     1.093569
      py      :     0.916301
 19 C s       :     3.266306  s :     3.266306
      pz      :     0.810663  p :     2.756424
      px      :     1.060747
      py      :     0.885013
 20 O s       :     3.946623  s :     3.946623
      pz      :     1.536663  p :     4.553220
      px      :     1.753410
      py      :     1.263147
 21 H s       :     0.825108  s :     0.825108
 22 O s       :     3.951578  s :     3.951578
      pz      :     1.634318  p :     4.642519
      px      :     1.308854
      py      :     1.699347
 23 H s       :     0.845955  s :     0.845955
 24 H s       :     0.832704  s :     0.832704
 25 H s       :     0.854075  s :     0.854075
 26 H s       :     0.846338  s :     0.846338
 27 H s       :     0.858580  s :     0.858580
 28 H s       :     0.645601  s :     0.645601


                     *******************************
                     * LOEWDIN POPULATION ANALYSIS *
                     *******************************

----------------------
LOEWDIN ATOMIC CHARGES
----------------------
   0 C :    0.190436
   1 C :   -0.228295
   2 C :   -0.216815
   3 C :   -0.027426
   4 O :   -0.298857
   5 H :    0.099774
   6 H :    0.114749
   7 H :    0.115472
   8 H :    0.113551
   9 H :    0.119336
  10 H :    0.110120
  11 H :    0.101562
  12 C :   -0.046613
  13 H :    0.092900
  14 H :    0.094998
  15 O :   -0.357254
  16 C :    0.026918
  17 C :    0.042625
  18 C :   -0.239638
  19 C :   -0.037645
  20 O :   -0.315059
  21 H :    0.126916
  22 O :   -0.439454
  23 H :    0.119646
  24 H :    0.128254
  25 H :    0.112198
  26 H :    0.107929
  27 H :    0.100097
  28 H :    0.289576

-------------------------------
LOEWDIN REDUCED ORBITAL CHARGES
-------------------------------
  0 C s       :     2.978587  s :     2.978587
      pz      :     0.915921  p :     2.830977
      px      :     0.836314
      py      :     1.078742
  1 C s       :     2.979459  s :     2.979459
      pz      :     1.077034  p :     3.248837
      px      :     1.107517
      py      :     1.064286
  2 C s       :     2.973300  s :     2.973300
      pz      :     1.030008  p :     3.243515
      px      :     1.133231
      py      :     1.080276
  3 C s       :     2.983861  s :     2.983861
      pz      :     1.040383  p :     3.043566
      px      :     1.118620
      py      :     0.884563
  4 O s       :     3.607409  s :     3.607409
      pz      :     1.380072  p :     4.691448
      px      :     1.747168
      py      :     1.564208
  5 H s       :     0.900226  s :     0.900226
  6 H s       :     0.885251  s :     0.885251
  7 H s       :     0.884528  s :     0.884528
  8 H s       :     0.886449  s :     0.886449
  9 H s       :     0.880664  s :     0.880664
 10 H s       :     0.889880  s :     0.889880
 11 H s       :     0.898438  s :     0.898438
 12 C s       :     3.002780  s :     3.002780
      pz      :     0.896949  p :     3.043833
      px      :     1.021974
      py      :     1.124911
 13 H s       :     0.907100  s :     0.907100
 14 H s       :     0.905002  s :     0.905002
 15 O s       :     3.665428  s :     3.665428
      pz      :     1.477359  p :     4.691826
      px      :     1.310494
      py      :     1.903973
 16 C s       :     2.967547  s :     2.967547
      pz      :     1.009529  p :     3.005535
      px      :     1.022215
      py      :     0.973791
 17 C s       :     2.974417  s :     2.974417
      pz      :     1.079950  p :     2.982957
      px      :     0.865259
      py      :     1.037748
 18 C s       :     2.983363  s :     2.983363
      pz      :     1.080276  p :     3.256275
      px      :     1.132596
      py      :     1.043403
 19 C s       :     2.982940  s :     2.982940
      pz      :     0.947792  p :     3.054705
      px      :     1.118628
      py      :     0.988285
 20 O s       :     3.604282  s :     3.604282
      pz      :     1.592072  p :     4.710777
      px      :     1.785782
      py      :     1.332922
 21 H s       :     0.873084  s :     0.873084
 22 O s       :     3.693394  s :     3.693394
      pz      :     1.657395  p :     4.746060
      px      :     1.364517
      py      :     1.724148
 23 H s       :     0.880354  s :     0.880354
 24 H s       :     0.871746  s :     0.871746
 25 H s       :     0.887802  s :     0.887802
 26 H s       :     0.892071  s :     0.892071
 27 H s       :     0.899903  s :     0.899903
 28 H s       :     0.710424  s :     0.710424


                      *****************************
                      * MAYER POPULATION ANALYSIS *
                      *****************************

  NA   - Mulliken gross atomic population
  ZA   - Total nuclear charge
  QA   - Mulliken gross atomic charge
  VA   - Mayer's total valence
  BVA  - Mayer's bonded valence
  FA   - Mayer's free valence

  ATOM       NA         ZA         QA         VA         BVA        FA
  0 C      5.6975     6.0000     0.3025     3.6555     3.6555    -0.0000
  1 C      6.2773     6.0000    -0.2773     3.7183     3.7183     0.0000
  2 C      6.2977     6.0000    -0.2977     3.7634     3.7634     0.0000
  3 C      6.0020     6.0000    -0.0020     3.6552     3.6552    -0.0000
  4 O      8.5015     8.0000    -0.5015     1.8278     1.8278     0.0000
  5 H      0.8591     1.0000     0.1409     0.9313     0.9313     0.0000
  6 H      0.8531     1.0000     0.1469     0.9313     0.9313     0.0000
  7 H      0.8542     1.0000     0.1458     0.9398     0.9398     0.0000
  8 H      0.8586     1.0000     0.1414     0.9366     0.9366     0.0000
  9 H      0.8371     1.0000     0.1629     0.9348     0.9348     0.0000
 10 H      0.8437     1.0000     0.1563     0.9246     0.9246    -0.0000
 11 H      0.8590     1.0000     0.1410     0.9283     0.9283     0.0000
 12 C      6.0122     6.0000    -0.0122     3.6414     3.6414     0.0000
 13 H      0.8773     1.0000     0.1227     0.9273     0.9273     0.0000
 14 H      0.8738     1.0000     0.1262     0.9331     0.9331     0.0000
 15 O      8.4988     8.0000    -0.4988     1.7827     1.7827     0.0000
 16 C      5.9327     6.0000     0.0673     3.6009     3.6009    -0.0000
 17 C      5.9280     6.0000     0.0720     3.6384     3.6384     0.0000
 18 C      6.3112     6.0000    -0.3112     3.6994     3.6994    -0.0000
 19 C      6.0227     6.0000    -0.0227     3.6661     3.6661     0.0000
 20 O      8.4998     8.0000    -0.4998     1.7856     1.7856     0.0000
 21 H      0.8251     1.0000     0.1749     0.9342     0.9342    -0.0000
 22 O      8.5941     8.0000    -0.5941     1.7632     1.7632    -0.0000
 23 H      0.8460     1.0000     0.1540     0.9384     0.9384     0.0000
 24 H      0.8327     1.0000     0.1673     0.9380     0.9380    -0.0000
 25 H      0.8541     1.0000     0.1459     0.9346     0.9346    -0.0000
 26 H      0.8463     1.0000     0.1537     0.9258     0.9258     0.0000
 27 H      0.8586     1.0000     0.1414     0.9298     0.9298     0.0000
 28 H      0.6456     1.0000     0.3544     0.8455     0.8455    -0.0000

  Mayer bond orders larger than 0.100000
B(  0-C ,  1-C ) :   0.9235 B(  0-C ,  4-O ) :   0.9343 B(  0-C ,  5-H ) :   0.9217 
B(  0-C , 15-O ) :   0.8327 B(  1-C ,  2-C ) :   0.9565 B(  1-C ,  6-H ) :   0.9320 
B(  1-C ,  7-H ) :   0.9347 B(  2-C ,  3-C ) :   0.9548 B(  2-C ,  8-H ) :   0.9447 
B(  2-C ,  9-H ) :   0.9438 B(  3-C ,  4-O ) :   0.8370 B(  3-C , 10-H ) :   0.9330 
B(  3-C , 11-H ) :   0.9384 B( 12-C , 13-H ) :   0.9064 B( 12-C , 14-H ) :   0.9120 
B( 12-C , 15-O ) :   0.8728 B( 12-C , 16-C ) :   0.8932 B( 16-C , 17-C ) :   0.8917 
B( 16-C , 20-O ) :   0.8725 B( 16-C , 21-H ) :   0.9248 B( 17-C , 18-C ) :   0.9165 
B( 17-C , 22-O ) :   0.8911 B( 17-C , 23-H ) :   0.9301 B( 18-C , 19-C ) :   0.9360 
B( 18-C , 24-H ) :   0.9366 B( 18-C , 25-H ) :   0.9295 B( 19-C , 20-O ) :   0.8557 
B( 19-C , 26-H ) :   0.9326 B( 19-C , 27-H ) :   0.9375 B( 22-O , 28-H ) :   0.8056 


-------
TIMINGS
-------

Total SCF time: 0 days 0 hours 29 min 16 sec 

Total time                  ....    1756.700 sec
Sum of individual times     ....    1453.555 sec  ( 82.7%)

Fock matrix formation       ....    1385.191 sec  ( 78.9%)
  XC integration            ....     222.871 sec  ( 16.1% of F)
    Basis function eval.    ....       2.847 sec  (  1.3% of XC)
    Density eval.           ....       5.254 sec  (  2.4% of XC)
    XC-Functional eval.     ....       6.328 sec  (  2.8% of XC)
    XC-Potential eval.      ....       1.217 sec  (  0.5% of XC)
Diagonalization             ....       2.936 sec  (  0.2%)
Density matrix formation    ....       0.012 sec  (  0.0%)
Population analysis         ....       1.879 sec  (  0.1%)
Initial guess               ....       1.889 sec  (  0.1%)
Orbital Transformation      ....       0.000 sec  (  0.0%)
Orbital Orthonormalization  ....       0.000 sec  (  0.0%)
DIIS solution               ....      17.860 sec  (  1.0%)
SOSCF solution              ....      34.458 sec  (  2.0%)
Grid generation             ....       9.331 sec  (  0.5%)

-------------------------   --------------------
FINAL SINGLE POINT ENERGY      -652.829535096201
-------------------------   --------------------

------------------------------------------------------------------------------
                         ORCA SCF GRADIENT CALCULATION
------------------------------------------------------------------------------

Gradient of the Kohn-Sham DFT energy:
Kohn-Sham wavefunction type      ... RKS
Hartree-Fock exchange scaling    ...    0.200
Number of operators              ...    1
Number of atoms                  ...   29
Basis set dimensions             ...  149
Integral neglect threshold       ... 2.5e-11
Integral primitive cutoff        ... 2.5e-12

Nuclear repulsion gradient       ... done
One Electron Gradient            ... done
Pre-screening matrix             ... done
Starting the two electron gradient:
Two electron gradient done
Exchange-correlation gradient    ... done

------------------
CARTESIAN GRADIENT
------------------

   1   C   :    0.013579646    0.001766259   -0.003088500
   2   C   :    0.007193943   -0.002724744   -0.004223470
   3   C   :   -0.000103007   -0.000744355   -0.001781267
   4   C   :    0.000852298   -0.005541568   -0.003753910
   5   O   :    0.018930788   -0.007491414    0.020631038
   6   H   :    0.003735959    0.002523101   -0.000928637
   7   H   :   -0.000004556    0.001881132    0.000357081
   8   H   :   -0.000425892    0.001071877   -0.000733273
   9   H   :   -0.000710201    0.000665693    0.000187397
  10   H   :   -0.000573453    0.002011742    0.000836155
  11   H   :   -0.000403427    0.001036931    0.001693814
  12   H   :   -0.000436177    0.001219885    0.000852914
  13   C   :   -0.014699921    0.001381593   -0.019700993
  14   H   :   -0.002440755   -0.001625224   -0.000743420
  15   H   :   -0.006614731    0.001288051   -0.004462942
  16   O   :   -0.005675707   -0.000330639    0.025392347
  17   C   :   -0.019637361    0.001200339   -0.015672829
  18   C   :    0.028199493    0.001665224   -0.009394648
  19   C   :    0.004606223   -0.000281888   -0.001557637
  20   C   :   -0.002109573    0.003386131    0.000971392
  21   O   :    0.003809850   -0.001438631    0.002211910
  22   H   :    0.003402529   -0.000023150    0.001436137
  23   O   :   -0.002770711    0.038705031   -0.034417225
  24   H   :    0.011490680   -0.004184351   -0.001415939
  25   H   :   -0.000895939   -0.003270225   -0.000493567
  26   H   :    0.000699079   -0.000513762    0.001028470
  27   H   :    0.001460303   -0.001074715   -0.000129529
  28   H   :    0.000438890    0.001003812   -0.000160277
  29   H   :   -0.040898269   -0.031562135    0.047059408

Difference to translation invariance:
           :    0.0000000000   -0.0000000000   -0.0000000001

Norm of the cartesian gradient     ...    0.1090801503
RMS gradient                       ...    0.0116946196
MAX gradient                       ...    0.0470594076

-------
TIMINGS
-------

Total SCF gradient time            ...       90.167 sec

One electron gradient       ....       0.253 sec  (  0.3%)
Prescreening matrices       ....       0.037 sec  (  0.0%)
Two electron gradient       ....      12.387 sec  ( 13.7%)
XC gradient                 ....      53.541 sec  ( 59.4%)
------------------------------------------------------------------------------
                         ORCA GEOMETRY RELAXATION STEP
------------------------------------------------------------------------------

Reading the OPT-File                    .... done
Getting information on internals        .... done
Copying old internal coords+grads       .... done
Making the new internal coordinates     .... (new redundants).... done
Validating the new internal coordinates .... (new redundants).... done
Calculating the B-matrix                .... done
Calculating the G,G- and P matrices     .... done
Transforming gradient to internals      .... done
Projecting the internal gradient        .... done
Number of atoms                         ....  29
Number of internal coordinates          .... 172
Current Energy                          ....  -652.829535096 Eh
Current gradient norm                   ....     0.109080150 Eh/bohr
Maximum allowed component of the step   ....  0.300
Current trust radius                    ....  0.300
Evaluating the initial hessian          ....  (Almloef) done
Projecting the Hessian                  .... done
Forming the augmented Hessian           .... done
Diagonalizing the augmented Hessian     .... done
Last element of RFO vector              ....  0.941103011
Lowest eigenvalues of augmented Hessian:
 -0.039386016  0.007878539  0.033022337  0.033116400  0.036625254
Length of the computed step             ....  0.359280523
Warning: the length of the step is outside the trust region - taking restricted step instead
The input lambda is                     ....    -0.039386
   iter:   1  x=   -0.075051  g=    1.095826 f(x)=     0.039082
   iter:   2  x=   -0.090377  g=    0.634677 f(x)=     0.009727
   iter:   3  x=   -0.091879  g=    0.534824 f(x)=     0.000803
   iter:   4  x=   -0.091891  g=    0.526506 f(x)=     0.000006
   iter:   5  x=   -0.091891  g=    0.526441 f(x)=     0.000000
   iter:   6  x=   -0.091891  g=    0.526441 f(x)=     0.000000
The output lambda is                    ....    -0.091891 (6 iterations)
The final length of the internal step   ....  0.300000000
Converting the step to cartesian space:
 Initial RMS(Int)=    0.0228747855
Transforming coordinates:
 Iter   0:  RMS(Cart)=    0.0984171316 RMS(Int)=    0.4782542642
 Iter   1:  RMS(Cart)=    0.0015355376 RMS(Int)=    0.0006742429
 Iter   2:  RMS(Cart)=    0.0000957648 RMS(Int)=    0.0000605773
 Iter   3:  RMS(Cart)=    0.0000057289 RMS(Int)=    0.0000039728
 Iter   4:  RMS(Cart)=    0.0000004833 RMS(Int)=    0.0000002327
 Iter   5:  RMS(Cart)=    0.0000000475 RMS(Int)=    0.0000000210
Imposing constraints:
 Iter   0:  RMS(Cart)=    0.0000622965 RMS(Int)=    0.0000397010
 Iter   1:  RMS(Cart)=    0.0000390131 RMS(Int)=    0.0000284254
 Iter   2:  RMS(Cart)=    0.0000257023 RMS(Int)=    0.0000213305
 Iter   3:  RMS(Cart)=    0.0000175949 RMS(Int)=    0.0000168537
 Iter   4:  RMS(Cart)=    0.0000124190 RMS(Int)=    0.0000140652
 Iter   5:  RMS(Cart)=    0.0000090119 RMS(Int)=    0.0000123395
 Iter   6:  RMS(Cart)=    0.0000067286 RMS(Int)=    0.0000112501
 Iter   7:  RMS(Cart)=    0.0000051840 RMS(Int)=    0.0000105235
 Iter   8:  RMS(Cart)=    0.0000041337 RMS(Int)=    0.0000099975
 Iter   9:  RMS(Cart)=    0.0000034163 RMS(Int)=    0.0000095818
 Iter  10:  RMS(Cart)=    0.0000029221 RMS(Int)=    0.0000092282
 Iter  11:  RMS(Cart)=    0.0000025761 RMS(Int)=    0.0000089114
 Iter  12:  RMS(Cart)=    0.0000023279 RMS(Int)=    0.0000086182
 Iter  13:  RMS(Cart)=    0.0000021439 RMS(Int)=    0.0000083420
 Iter  14:  RMS(Cart)=    0.0000020025 RMS(Int)=    0.0000080789
[...]
  29   2.0000      -0.490671       -13.3518 
  30   2.0000      -0.475952       -12.9513 
  31   2.0000      -0.461279       -12.5520 
  32   2.0000      -0.454031       -12.3548 
  33   2.0000      -0.443254       -12.0616 
  34   2.0000      -0.426727       -11.6118 
  35   2.0000      -0.409176       -11.1342 
  36   2.0000      -0.401150       -10.9158 
  37   2.0000      -0.394448       -10.7335 
  38   2.0000      -0.375081       -10.2065 
  39   2.0000      -0.372913       -10.1475 
  40   2.0000      -0.360785        -9.8175 
  41   2.0000      -0.357592        -9.7306 
  42   2.0000      -0.352919        -9.6034 
  43   2.0000      -0.333709        -9.0807 
  44   2.0000      -0.312735        -8.5099 
  45   2.0000      -0.307334        -8.3630 
  46   2.0000      -0.303912        -8.2699 
  47   2.0000      -0.272636        -7.4188 
  48   2.0000      -0.258495        -7.0340 
  49   2.0000      -0.252464        -6.8699 
  50   2.0000      -0.244161        -6.6440 
  51   0.0000       0.064300         1.7497 
  52   0.0000       0.080413         2.1881 
  53   0.0000       0.086795         2.3618 
  54   0.0000       0.095818         2.6073 
  55   0.0000       0.105251         2.8640 
  56   0.0000       0.112364         3.0576 
  57   0.0000       0.118296         3.2190 
  58   0.0000       0.123763         3.3678 
  59   0.0000       0.129160         3.5146 
  60   0.0000       0.141613         3.8535 
  61   0.0000       0.150467         4.0944 
  62   0.0000       0.156043         4.2462 
  63   0.0000       0.157897         4.2966 
  64   0.0000       0.162815         4.4304 
  65   0.0000       0.164314         4.4712 
  66   0.0000       0.166858         4.5404 
  67   0.0000       0.179523         4.8851 
  68   0.0000       0.190501         5.1838 
  69   0.0000       0.206227         5.6117 
  70   0.0000       0.220247         5.9932 
  71   0.0000       0.227040         6.1781 
  72   0.0000       0.229154         6.2356 
  73   0.0000       0.235025         6.3954 
  74   0.0000       0.238833         6.4990 
  75   0.0000       0.253068         6.8863 
  76   0.0000       0.270604         7.3635 
  77   0.0000       0.274477         7.4689 
  78   0.0000       0.286347         7.7919 
  79   0.0000       0.298462         8.1216 
  80   0.0000       0.325610         8.8603 
  81   0.0000       0.524754        14.2793 
  82   0.0000       0.544403        14.8140 
  83   0.0000       0.546087        14.8598 
  84   0.0000       0.551432        15.0052 
  85   0.0000       0.553750        15.0683 
  86   0.0000       0.566856        15.4249 
  87   0.0000       0.572288        15.5728 
  88   0.0000       0.581473        15.8227 
  89   0.0000       0.590792        16.0763 
  90   0.0000       0.598924        16.2975 
  91   0.0000       0.606238        16.4966 
  92   0.0000       0.622661        16.9435 
  93   0.0000       0.627819        17.0838 
  94   0.0000       0.645337        17.5605 
  95   0.0000       0.649483        17.6733 
  96   0.0000       0.656962        17.8768 
  97   0.0000       0.675714        18.3871 
  98   0.0000       0.687460        18.7067 
  99   0.0000       0.712454        19.3869 
 100   0.0000       0.724483        19.7142 
 101   0.0000       0.758531        20.6407 
 102   0.0000       0.777174        21.1480 
 103   0.0000       0.812498        22.1092 
 104   0.0000       0.827505        22.5176 
 105   0.0000       0.837947        22.8017 
 106   0.0000       0.840458        22.8700 
 107   0.0000       0.844108        22.9693 
 108   0.0000       0.858991        23.3743 
 109   0.0000       0.865870        23.5615 
 110   0.0000       0.878379        23.9019 
 111   0.0000       0.893088        24.3022 
 112   0.0000       0.901281        24.5251 
 113   0.0000       0.909943        24.7608 
 114   0.0000       0.918398        24.9909 
 115   0.0000       0.927831        25.2476 
 116   0.0000       0.938077        25.5264 
 117   0.0000       0.939690        25.5703 
 118   0.0000       0.948956        25.8224 
 119   0.0000       0.956900        26.0386 
 120   0.0000       0.972873        26.4732 
 121   0.0000       0.982273        26.7290 
 122   0.0000       1.009217        27.4622 
 123   0.0000       1.024375        27.8747 
 124   0.0000       1.034541        28.1513 
 125   0.0000       1.058210        28.7954 
 126   0.0000       1.072084        29.1729 
 127   0.0000       1.104937        30.0669 
 128   0.0000       1.112286        30.2668 
 129   0.0000       1.168114        31.7860 
 130   0.0000       1.206254        32.8239 
 131   0.0000       1.223091        33.2820 
 132   0.0000       1.268752        34.5245 
 133   0.0000       1.304287        35.4914 
 134   0.0000       1.332604        36.2620 
 135   0.0000       1.335807        36.3492 
 136   0.0000       1.368008        37.2254 
 137   0.0000       1.409143        38.3447 
 138   0.0000       1.424287        38.7568 
 139   0.0000       1.465484        39.8778 
 140   0.0000       1.512523        41.1578 
 141   0.0000       1.608655        43.7737 
 142   0.0000       1.618755        44.0486 
 143   0.0000       1.692393        46.0524 
 144   0.0000       1.729512        47.0624 
 145   0.0000       1.877066        51.0776 
 146   0.0000       1.941994        52.8443 
 147   0.0000       2.077022        56.5186 
 148   0.0000       2.132161        58.0191 

                    ********************************
                    * MULLIKEN POPULATION ANALYSIS *
                    ********************************

-----------------------
MULLIKEN ATOMIC CHARGES
-----------------------
   0 C :    0.305547
   1 C :   -0.275425
   2 C :   -0.297180
   3 C :   -0.001234
   4 O :   -0.501649
   5 H :    0.135546
   6 H :    0.145927
   7 H :    0.141013
   8 H :    0.141853
   9 H :    0.160157
  10 H :    0.157809
  11 H :    0.140907
  12 C :    0.000140
  13 H :    0.120173
  14 H :    0.124569
  15 O :   -0.497179
  16 C :    0.069432
  17 C :    0.076934
  18 C :   -0.297701
  19 C :   -0.027222
  20 O :   -0.505553
  21 H :    0.167418
  22 O :   -0.603324
  23 H :    0.148893
  24 H :    0.164691
  25 H :    0.141308
  26 H :    0.151582
  27 H :    0.145468
  28 H :    0.367100
Sum of atomic charges:   -0.0000000

--------------------------------
MULLIKEN REDUCED ORBITAL CHARGES
--------------------------------
  0 C s       :     3.197471  s :     3.197471
      pz      :     0.803616  p :     2.496982
      px      :     0.696303
      py      :     0.997062
  1 C s       :     3.302103  s :     3.302103
      pz      :     0.985404  p :     2.973321
      px      :     1.038355
      py      :     0.949562
  2 C s       :     3.314445  s :     3.314445
      pz      :     0.905974  p :     2.982735
      px      :     1.083979
      py      :     0.992782
  3 C s       :     3.263346  s :     3.263346
      pz      :     0.926780  p :     2.737889
      px      :     1.068360
      py      :     0.742749
  4 O s       :     3.941212  s :     3.941212
      pz      :     1.266026  p :     4.560437
      px      :     1.769366
      py      :     1.525046
  5 H s       :     0.864454  s :     0.864454
  6 H s       :     0.854073  s :     0.854073
  7 H s       :     0.858987  s :     0.858987
  8 H s       :     0.858147  s :     0.858147
  9 H s       :     0.839843  s :     0.839843
 10 H s       :     0.842191  s :     0.842191
 11 H s       :     0.859093  s :     0.859093
 12 C s       :     3.246013  s :     3.246013
      pz      :     0.777460  p :     2.753847
      px      :     0.912445
      py      :     1.063942
 13 H s       :     0.879827  s :     0.879827
 14 H s       :     0.875431  s :     0.875431
 15 O s       :     3.937330  s :     3.937330
      pz      :     1.433838  p :     4.559849
      px      :     1.267692
      py      :     1.858319
 16 C s       :     3.272374  s :     3.272374
      pz      :     0.882202  p :     2.658194
      px      :     0.894213
      py      :     0.881780
 17 C s       :     3.264547  s :     3.264547
      pz      :     0.987021  p :     2.658518
      px      :     0.750237
      py      :     0.921260
 18 C s       :     3.314766  s :     3.314766
      pz      :     0.968673  p :     2.982935
      px      :     1.093268
      py      :     0.920994
 19 C s       :     3.268724  s :     3.268724
      pz      :     0.821775  p :     2.758499
      px      :     1.036371
      py      :     0.900353
 20 O s       :     3.948084  s :     3.948084
      pz      :     1.541130  p :     4.557469
      px      :     1.718671
      py      :     1.297669
 21 H s       :     0.832582  s :     0.832582
 22 O s       :     3.919693  s :     3.919693
      pz      :     1.498341  p :     4.683631
      px      :     1.421250
      py      :     1.764039
 23 H s       :     0.851107  s :     0.851107
 24 H s       :     0.835309  s :     0.835309
 25 H s       :     0.858692  s :     0.858692
 26 H s       :     0.848418  s :     0.848418
 27 H s       :     0.854532  s :     0.854532
 28 H s       :     0.632900  s :     0.632900


                     *******************************
                     * LOEWDIN POPULATION ANALYSIS *
                     *******************************

----------------------
LOEWDIN ATOMIC CHARGES
----------------------
   0 C :    0.179380
   1 C :   -0.231335
   2 C :   -0.216515
   3 C :   -0.024667
   4 O :   -0.301954
   5 H :    0.094639
   6 H :    0.114442
   7 H :    0.112252
   8 H :    0.114290
   9 H :    0.118097
  10 H :    0.111304
  11 H :    0.102055
  12 C :   -0.043938
  13 H :    0.088553
  14 H :    0.090633
  15 O :   -0.319265
  16 C :    0.019938
  17 C :    0.035044
  18 C :   -0.241719
  19 C :   -0.037320
  20 O :   -0.316347
  21 H :    0.120587
  22 O :   -0.414633
  23 H :    0.113821
  24 H :    0.127324
  25 H :    0.111191
  26 H :    0.107115
  27 H :    0.102417
  28 H :    0.284609

-------------------------------
LOEWDIN REDUCED ORBITAL CHARGES
-------------------------------
  0 C s       :     2.952664  s :     2.952664
      pz      :     0.931575  p :     2.867956
      px      :     0.855493
      py      :     1.080887
  1 C s       :     2.979600  s :     2.979600
      pz      :     1.075590  p :     3.251735
      px      :     1.110067
      py      :     1.066078
  2 C s       :     2.971283  s :     2.971283
      pz      :     1.030739  p :     3.245233
      px      :     1.133138
      py      :     1.081355
  3 C s       :     2.984302  s :     2.984302
      pz      :     1.028487  p :     3.040365
      px      :     1.127699
      py      :     0.884179
  4 O s       :     3.593255  s :     3.593255
      pz      :     1.337634  p :     4.708699
      px      :     1.799225
      py      :     1.571840
  5 H s       :     0.905361  s :     0.905361
  6 H s       :     0.885558  s :     0.885558
  7 H s       :     0.887748  s :     0.887748
  8 H s       :     0.885710  s :     0.885710
  9 H s       :     0.881903  s :     0.881903
 10 H s       :     0.888696  s :     0.888696
 11 H s       :     0.897945  s :     0.897945
 12 C s       :     2.977067  s :     2.977067
      pz      :     0.911545  p :     3.066870
      px      :     1.030559
      py      :     1.124766
 13 H s       :     0.911447  s :     0.911447
 14 H s       :     0.909367  s :     0.909367
 15 O s       :     3.594111  s :     3.594111
      pz      :     1.500998  p :     4.725153
      px      :     1.335290
      py      :     1.888866
 16 C s       :     2.961654  s :     2.961654
      pz      :     1.014232  p :     3.018408
      px      :     1.038338
      py      :     0.965838
 17 C s       :     2.953284  s :     2.953284
      pz      :     1.080256  p :     3.011672
      px      :     0.897714
      py      :     1.033701
 18 C s       :     2.985200  s :     2.985200
      pz      :     1.075310  p :     3.256520
      px      :     1.133161
      py      :     1.048049
 19 C s       :     2.983925  s :     2.983925
      pz      :     0.955042  p :     3.053395
      px      :     1.099213
      py      :     0.999141
 20 O s       :     3.604224  s :     3.604224
      pz      :     1.593866  p :     4.712123
      px      :     1.752123
      py      :     1.366134
 21 H s       :     0.879413  s :     0.879413
 22 O s       :     3.613023  s :     3.613023
      pz      :     1.534755  p :     4.801610
      px      :     1.474166
      py      :     1.792690
 23 H s       :     0.886179  s :     0.886179
 24 H s       :     0.872676  s :     0.872676
 25 H s       :     0.888809  s :     0.888809
 26 H s       :     0.892885  s :     0.892885
 27 H s       :     0.897583  s :     0.897583
 28 H s       :     0.715391  s :     0.715391


                      *****************************
                      * MAYER POPULATION ANALYSIS *
                      *****************************

  NA   - Mulliken gross atomic population
  ZA   - Total nuclear charge
  QA   - Mulliken gross atomic charge
  VA   - Mayer's total valence
  BVA  - Mayer's bonded valence
  FA   - Mayer's free valence

  ATOM       NA         ZA         QA         VA         BVA        FA
  0 C      5.6945     6.0000     0.3055     3.6680     3.6680    -0.0000
  1 C      6.2754     6.0000    -0.2754     3.7177     3.7177    -0.0000
  2 C      6.2972     6.0000    -0.2972     3.7650     3.7650     0.0000
  3 C      6.0012     6.0000    -0.0012     3.6587     3.6587    -0.0000
  4 O      8.5016     8.0000    -0.5016     1.8047     1.8047    -0.0000
  5 H      0.8645     1.0000     0.1355     0.9354     0.9354    -0.0000
  6 H      0.8541     1.0000     0.1459     0.9327     0.9327     0.0000
  7 H      0.8590     1.0000     0.1410     0.9404     0.9404     0.0000
  8 H      0.8581     1.0000     0.1419     0.9371     0.9371    -0.0000
  9 H      0.8398     1.0000     0.1602     0.9358     0.9358     0.0000
 10 H      0.8422     1.0000     0.1578     0.9248     0.9248    -0.0000
 11 H      0.8591     1.0000     0.1409     0.9291     0.9291     0.0000
 12 C      5.9999     6.0000     0.0001     3.6117     3.6117     0.0000
 13 H      0.8798     1.0000     0.1202     0.9300     0.9300     0.0000
 14 H      0.8754     1.0000     0.1246     0.9358     0.9358    -0.0000
 15 O      8.4972     8.0000    -0.4972     1.7420     1.7420    -0.0000
 16 C      5.9306     6.0000     0.0694     3.6151     3.6151    -0.0000
 17 C      5.9231     6.0000     0.0769     3.6446     3.6446     0.0000
 18 C      6.2977     6.0000    -0.2977     3.6911     3.6911     0.0000
 19 C      6.0272     6.0000    -0.0272     3.6669     3.6669    -0.0000
 20 O      8.5056     8.0000    -0.5056     1.7859     1.7859    -0.0000
 21 H      0.8326     1.0000     0.1674     0.9353     0.9353     0.0000
 22 O      8.6033     8.0000    -0.6033     1.7439     1.7439     0.0000
 23 H      0.8511     1.0000     0.1489     0.9372     0.9372     0.0000
 24 H      0.8353     1.0000     0.1647     0.9387     0.9387    -0.0000
 25 H      0.8587     1.0000     0.1413     0.9364     0.9364    -0.0000
 26 H      0.8484     1.0000     0.1516     0.9261     0.9261    -0.0000
 27 H      0.8545     1.0000     0.1455     0.9287     0.9287     0.0000
 28 H      0.6329     1.0000     0.3671     0.8317     0.8317     0.0000

  Mayer bond orders larger than 0.100000
B(  0-C ,  1-C ) :   0.9287 B(  0-C ,  4-O ) :   0.9398 B(  0-C ,  5-H ) :   0.9192 
B(  0-C , 15-O ) :   0.8318 B(  1-C ,  2-C ) :   0.9533 B(  1-C ,  6-H ) :   0.9340 
B(  1-C ,  7-H ) :   0.9344 B(  2-C ,  3-C ) :   0.9556 B(  2-C ,  8-H ) :   0.9451 
B(  2-C ,  9-H ) :   0.9442 B(  3-C ,  4-O ) :   0.8355 B(  3-C , 10-H ) :   0.9338 
B(  3-C , 11-H ) :   0.9397 B( 12-C , 13-H ) :   0.9024 B( 12-C , 14-H ) :   0.9122 
B( 12-C , 15-O ) :   0.8501 B( 12-C , 16-C ) :   0.8999 B( 16-C , 17-C ) :   0.9012 
B( 16-C , 20-O ) :   0.8734 B( 16-C , 21-H ) :   0.9238 B( 17-C , 18-C ) :   0.9112 
B( 17-C , 22-O ) :   0.8941 B( 17-C , 23-H ) :   0.9328 B( 18-C , 19-C ) :   0.9397 
B( 18-C , 24-H ) :   0.9371 B( 18-C , 25-H ) :   0.9343 B( 19-C , 20-O ) :   0.8507 
B( 19-C , 26-H ) :   0.9337 B( 19-C , 27-H ) :   0.9378 B( 22-O , 28-H ) :   0.7928 


-------
TIMINGS
-------

Total SCF time: 0 days 0 hours 4 min 54 sec 

Total time                  ....     294.074 sec
Sum of individual times     ....     229.204 sec  ( 77.9%)

Fock matrix formation       ....     199.680 sec  ( 67.9%)
  XC integration            ....      57.358 sec  ( 28.7% of F)
    Basis function eval.    ....       1.404 sec  (  2.4% of XC)
    Density eval.           ....       3.978 sec  (  6.9% of XC)
    XC-Functional eval.     ....       0.891 sec  (  1.6% of XC)
    XC-Potential eval.      ....       0.617 sec  (  1.1% of XC)
Diagonalization             ....       0.010 sec  (  0.0%)
Density matrix formation    ....       0.006 sec  (  0.0%)
Population analysis         ....       0.769 sec  (  0.3%)
Initial guess               ....       0.318 sec  (  0.1%)
Orbital Transformation      ....       0.000 sec  (  0.0%)
Orbital Orthonormalization  ....       0.005 sec  (  0.0%)
DIIS solution               ....       0.001 sec  (  0.0%)
SOSCF solution              ....       0.636 sec  (  0.2%)
Grid generation             ....      27.785 sec  (  9.4%)

-------------------------   --------------------
FINAL SINGLE POINT ENERGY      -652.858076287964
-------------------------   --------------------

                                *** OPTIMIZATION RUN DONE ***

                            ***************************************
                            *     ORCA property calculations      *
                            ***************************************

                                    ---------------------
                                    Active property flags
                                    ---------------------
   (+) Dipole Moment


------------------------------------------------------------------------------
                       ORCA ELECTRIC PROPERTIES CALCULATION
------------------------------------------------------------------------------

Dipole Moment Calculation                       ... on
Quadrupole Moment Calculation                   ... off
Polarizability Calculation                      ... off
GBWName                                         ... project_8052/ensemble_195_180.gbw
Electron density file                           ... project_8052/ensemble_195_180.scfp
The origin for moment calculation is the CENTER OF MASS  = (-44.035074, 49.856676 86.402458)

-------------
DIPOLE MOMENT
-------------
                                X             Y             Z
Electronic contribution:     -2.84069      -1.76361       2.21271
Nuclear contribution   :      3.42070       2.09238      -3.13400
                        -----------------------------------------
Total Dipole Moment    :      0.58000       0.32877      -0.92129
                        -----------------------------------------
Magnitude (a.u.)       :      1.13722
Magnitude (Debye)      :      2.89058



--------------------
Rotational spectrum 
--------------------
 
Rotational constants in cm-1:     0.064645     0.011339     0.010804 
Rotational constants in MHz :  1937.995810   339.932054   323.909175 

 Dipole components along the rotational axes: 
x,y,z [a.u.] :    -0.158903    -0.633821    -0.930743 
x,y,z [Debye]:    -0.403899    -1.611045    -2.365762 

 

Timings for individual modules:

Sum of individual times         ...     5985.328 sec (=  99.755 min)
GTO integral calculation        ...      180.036 sec (=   3.001 min)   3.0 %
SCF iterations                  ...     5498.383 sec (=  91.640 min)  91.9 %
SCF Gradient evaluation         ...      265.263 sec (=   4.421 min)   4.4 %
Geometry relaxation             ...       41.646 sec (=   0.694 min)   0.7 %
                             ****ORCA TERMINATED NORMALLY****
TOTAL RUN TIME: 0 days 1 hours 45 minutes 2 seconds 252 msec
