
                                 *****************
                                 * O   R   C   A *
                                 *****************

           --- An Ab Initio, DFT and Semiempirical electronic structure package ---

                  #######################################################
                  #                        -***-                        #
                  #          Department of theory and spectroscopy      #
                  #               Directorship: Frank Neese             #
                  #        Max Planck Institute fuer Kohlenforschung    #
                  #                Kaiser Wilhelm Platz 1               #
                  #                 D-45470 Muelheim/Ruhr               #
                  #                      Germany                        #
                  #                                                     #
                  #                  All rights reserved                #
                  #                        -***-                        #
                  #######################################################


                         Program Version 4.2.0 -  RELEASE  -


 With contributions from (in alphabetic order):
   Daniel Aravena         : Magnetic Suceptibility
   Michael Atanasov       : Ab Initio Ligand Field Theory (pilot matlab implementation)
   Alexander A. Auer      : GIAO ZORA, VPT2
   Ute Becker             : Parallelization
   Giovanni Bistoni       : ED, misc. LED, open-shell LED, HFLED
   Martin Brehm           : Molecular dynamics
   Dmytro Bykov           : SCF Hessian
   Vijay G. Chilkuri      : MRCI spin determinant printing, contributions to CSF-ICE
   Dipayan Datta          : RHF DLPNO-CCSD density
   Achintya Kumar Dutta   : EOM-CC, STEOM-CC
   Dmitry Ganyushin       : Spin-Orbit,Spin-Spin,Magnetic field MRCI
   Miquel Garcia          : C-PCM Hessian, Gaussian charge scheme
   Yang Guo               : DLPNO-NEVPT2, CIM, IAO-localization
   Andreas Hansen         : Spin unrestricted coupled pair/coupled cluster methods
   Benjamin Helmich-Paris : CASSCF linear response (MC-RPA)
   Lee Huntington         : MR-EOM, pCC
   Robert Izsak           : Overlap fitted RIJCOSX, COSX-SCS-MP3, EOM
   Christian Kollmar      : KDIIS, OOCD, Brueckner-CCSD(T), CCSD density
   Simone Kossmann        : Meta GGA functionals, TD-DFT gradient, OOMP2, MP2 Hessian
   Martin Krupicka        : AUTO-CI
   Lucas Lang             : DCDCAS
   Dagmar Lenk            : GEPOL surface, SMD
   Dimitrios Liakos       : Extrapolation schemes; Compound Job, initial MDCI parallelization
   Dimitrios Manganas     : Further ROCIS development; embedding schemes
   Dimitrios Pantazis     : SARC Basis sets
   Taras Petrenko         : DFT Hessian,TD-DFT gradient, ASA, ECA, R-Raman, ABS, FL, XAS/XES, NRVS
   Peter Pinski           : DLPNO-MP2, DLPNO-MP2 Gradient
   Christoph Reimann      : Effective Core Potentials
   Marius Retegan         : Local ZFS, SOC
   Christoph Riplinger    : Optimizer, TS searches, QM/MM, DLPNO-CCSD(T), (RO)-DLPNO pert. Triples
   Tobias Risthaus        : Range-separated hybrids, TD-DFT gradient, RPA, STAB
   Michael Roemelt        : Original ROCIS implementation
   Masaaki Saitow         : Open-shell DLPNO-CCSD energy and density
   Barbara Sandhoefer     : DKH picture change effects
   Avijit Sen             : IP-ROCIS
   Kantharuban Sivalingam : CASSCF convergence, NEVPT2, FIC-MRCI
   Bernardo de Souza      : ESD, SOC TD-DFT
   Georgi Stoychev        : AutoAux, RI-MP2 NMR
   Willem Van den Heuvel  : Paramagnetic NMR
   Boris Wezisla          : Elementary symmetry handling
   Frank Wennmohs         : Technical directorship


 We gratefully acknowledge several colleagues who have allowed us to
 interface, adapt or use parts of their codes:
   Stefan Grimme, W. Hujo, H. Kruse,             : VdW corrections, initial TS optimization,
                  C. Bannwarth                     DFT functionals, gCP, sTDA/sTD-DF
   Ed Valeev, F. Pavosevic, A. Kumar             : LibInt (2-el integral package), F12 methods
   Garnet Chan, S. Sharma, J. Yang, R. Olivares  : DMRG
   Ulf Ekstrom                                   : XCFun DFT Library
   Mihaly Kallay                                 : mrcc  (arbitrary order and MRCC methods)
   Andreas Klamt, Michael Diedenhofen            : otool_cosmo (COSMO solvation model)
   Jiri Pittner, Ondrej Demel                    : Mk-CCSD
   Frank Weinhold                                : gennbo (NPA and NBO analysis)
   Christopher J. Cramer and Donald G. Truhlar   : smd solvation model
   Lars Goerigk                                  : TD-DFT with DH, B97 family of functionals
   V. Asgeirsson, H. Jonsson                     : NEB implementation
   FAccTs GmbH                                   : IRC, NEB, NEB-TS, Multilevel, MM, QM/MM, CI optimization
   S Lehtola, MJT Oliveira, MAL Marques          : LibXC Library


 Your calculation uses the libint2 library for the computation of 2-el integrals
 For citations please refer to: http://libint.valeyev.net

 Your ORCA version has been built with support for libXC version: 4.2.3
 For citations please refer to: https://tddft.org/programs/libxc/

 This ORCA versions uses:
   CBLAS   interface :  Fast vector & matrix operations
   LAPACKE interface :  Fast linear algebra routines
   SCALAPACK package :  Parallel linear algebra routines


----- Orbital basis set information -----
Your calculation utilizes the basis: 6-31G
   H-He, Li-Ne : W. J. Hehre, R. Ditchfield and J.A. Pople, J. Chem. Phys. 56, 2257 (1972).
                 Note: He and Ne are unpublished basis sets taken from the Gaussian program.
                 Note: Li and B from J. D. Dill and J. A. Pople, J. Chem. Phys. 62, 2921 (1975).
   Na - Ar     : M. M. Francl, W. J. Pietro, W. J. Hehre, J. S. Binkley, M. S. Gordon, 
                 D. J. DeFrees and J. A. Pople, J. Chem. Phys. 77, 3654 (1982).
   K - Zn      : V. A. Rassolov, J. A. Pople, M. A. Ratner, and T. L. Windus, J. Chem. Phys. 109, 1223 (1998).

================================================================================
                                        WARNINGS
                       Please study these warnings very carefully!
================================================================================


WARNING: Geometry Optimization
  ===> : Switching off AutoStart
         For restart on a previous wavefunction, please use MOREAD

INFO   : the flag for use of LIBINT has been found!

================================================================================
                                       INPUT FILE
================================================================================
NAME = project_8051/ensemble_180_30.inp
|  1> # Test redundant internal optimization
|  2> #
|  3> ! RKS B3LYP  Opt TightSCF SmallPrint
|  4> 
|  5> %basis
|  6>         Basis "6-31G"
|  7> end
|  8> 
|  9> %geom
| 10> Constraints
| 11> { D 4  0  15  12  180.0   C } # D for Dihedral angle
| 12> { D 0  15  12  16  30.0   C } # D for Dihedral angle
| 13> { D 0  4  3  2   C } # D for Dihedral angle
| 14> { D 4  3  2  1   C } # D for Dihedral angle
| 15> { D 3  2  1  0   C } # D for Dihedral angle
| 16> { D 2  1  0  4   C } # D for Dihedral angle
| 17> { D 1  0  4  3   C } # D for Dihedral angle
| 18> { D 16  20  19  18   C } # D for Dihedral angle
| 19> { D 20  19  18  17   C } # D for Dihedral angle
| 20> { D 19  18  17  16   C } # D for Dihedral angle
| 21> { D 18  17  16  20   C } # D for Dihedral angle
| 22> { D 17  16  20  19   C } # D for Dihedral angle
| 23> { D 15  12  16  20   C } # D for Dihedral angle
| 24> end
| 25> end
| 26> 
| 27> 
| 28> #%pal 
| 29> #nprocs 8
| 30> #end
| 31> 
| 32> * xyz 0 1
| 33> C  -21.048   26.222   46.251
| 34> C  -20.361   27.558   45.944
| 35> C  -20.329   28.222   47.341
| 36> C  -20.110   27.022   48.296
| 37> O  -20.473   25.807   47.535
| 38> H  -20.833   25.428   45.533
| 39> H  -19.344   27.382   45.576
| 40> H  -20.898   28.157   45.201
| 41> H  -19.543   28.978   47.434
| 42> H  -21.289   28.710   47.548
| 43> H  -20.733   27.082   49.195
| 44> H  -19.064   26.913   48.597
| 45> C  -23.309   26.834   45.072
| 46> H  -24.332   26.437   45.074
| 47> H  -23.365   27.928   45.015
| 48> O  -22.586   26.394   46.375
| 49> C  -22.592   26.329   43.789
| 50> C  -22.618   24.799   43.702
| 51> C  -24.054   24.539   43.188
| 52> C  -24.312   25.738   42.242
| 53> O  -23.315   26.772   42.591
| 54> H  -21.594   26.768   43.740
| 55> H  -21.878   24.452   42.972
| 56> O  -22.328   24.106   45.061
| 57> H  -24.154   23.575   42.679
| 58> H  -24.761   24.549   44.027
| 59> H  -25.318   26.155   42.359
| 60> H  -24.156   25.481   41.191
| 61> H  -23.058   24.439   45.807
| 62> *
| 63> 
| 64>                          ****END OF INPUT****
================================================================================

                       *****************************
                       * Geometry Optimization Run *
                       *****************************

Geometry optimization settings:
Update method            Update   .... BFGS
Choice of coordinates    CoordSys .... Z-matrix Internals
Initial Hessian          InHess   .... Almoef's Model

Convergence Tolerances:
Energy Change            TolE     ....  5.0000e-06 Eh
Max. Gradient            TolMAXG  ....  3.0000e-04 Eh/bohr
RMS Gradient             TolRMSG  ....  1.0000e-04 Eh/bohr
Max. Displacement        TolMAXD  ....  4.0000e-03 bohr
RMS Displacement         TolRMSD  ....  2.0000e-03 bohr
Strict Convergence                ....  False
------------------------------------------------------------------------------
                        ORCA OPTIMIZATION COORDINATE SETUP
------------------------------------------------------------------------------

The optimization will be done in new redundant internal coordinates
Making redundant internal coordinates   ...  (new redundants) done
Evaluating the initial hessian          ...  (Almloef) done
Evaluating the coordinates              ...  done
Calculating the B-matrix                .... done
Calculating the G-matrix                .... done
Diagonalizing the G-matrix              .... done
Imposing constraints:
 Iter   0:  RMS(Cart)=    0.0001360092 RMS(Int)=    0.0000571687
 Iter   1:  RMS(Cart)=    0.0000683044 RMS(Int)=    0.0000310236
 Iter   2:  RMS(Cart)=    0.0000367290 RMS(Int)=    0.0000184422
 Iter   3:  RMS(Cart)=    0.0000212132 RMS(Int)=    0.0000120651
 Iter   4:  RMS(Cart)=    0.0000130405 RMS(Int)=    0.0000086316
 Iter   5:  RMS(Cart)=    0.0000084167 RMS(Int)=    0.0000066952
 Iter   6:  RMS(Cart)=    0.0000056407 RMS(Int)=    0.0000055748
 Iter   7:  RMS(Cart)=    0.0000039016 RMS(Int)=    0.0000049129
 Iter   8:  RMS(Cart)=    0.0000027821 RMS(Int)=    0.0000045066
 Iter   9:  RMS(Cart)=    0.0000020503 RMS(Int)=    0.0000042398
 Iter  10:  RMS(Cart)=    0.0000015693 RMS(Int)=    0.0000040480
 Iter  11:  RMS(Cart)=    0.0000012530 RMS(Int)=    0.0000038965
 Iter  12:  RMS(Cart)=    0.0000010451 RMS(Int)=    0.0000037675
 Iter  13:  RMS(Cart)=    0.0000009074 RMS(Int)=    0.0000036514
 Iter  14:  RMS(Cart)=    0.0000008143 RMS(Int)=    0.0000035435
 Iter  15:  RMS(Cart)=    0.0000007490 RMS(Int)=    0.0000034413
 Iter  16:  RMS(Cart)=    0.0000007009 RMS(Int)=    0.0000033434
 Iter  17:  RMS(Cart)=    0.0000006636 RMS(Int)=    0.0000032492
 Iter  18:  RMS(Cart)=    0.0000006331 RMS(Int)=    0.0000031582
 Iter  19:  RMS(Cart)=    0.0000006071 RMS(Int)=    0.0000030702
 Iter  20:  RMS(Cart)=    0.0000005842 RMS(Int)=    0.0000029850
 Iter  21:  RMS(Cart)=    0.0000005634 RMS(Int)=    0.0000029025
 Iter  22:  RMS(Cart)=    0.0000005443 RMS(Int)=    0.0000028225
 Iter  23:  RMS(Cart)=    0.0000005263 RMS(Int)=    0.0000027451
 Iter  24:  RMS(Cart)=    0.0000005093 RMS(Int)=    0.0000026700
 Iter  25:  RMS(Cart)=    0.0000004932 RMS(Int)=    0.0000025972
 Iter  26:  RMS(Cart)=    0.0000004778 RMS(Int)=    0.0000025266
 Iter  27:  RMS(Cart)=    0.0000004630 RMS(Int)=    0.0000024582
 Iter  28:  RMS(Cart)=    0.0000004488 RMS(Int)=    0.0000023918
 Iter  29:  RMS(Cart)=    0.0000004351 RMS(Int)=    0.0000023275
 Iter  30:  RMS(Cart)=    0.0000004219 RMS(Int)=    0.0000022651
 Iter  31:  RMS(Cart)=    0.0000004091 RMS(Int)=    0.0000022046
 Iter  32:  RMS(Cart)=    0.0000003968 RMS(Int)=    0.0000021460
 Iter  33:  RMS(Cart)=    0.0000003849 RMS(Int)=    0.0000020891
 Iter  34:  RMS(Cart)=    0.0000003734 RMS(Int)=    0.0000020339
 Iter  35:  RMS(Cart)=    0.0000003622 RMS(Int)=    0.0000019803
 Iter  36:  RMS(Cart)=    0.0000003514 RMS(Int)=    0.0000019284
 Iter  37:  RMS(Cart)=    0.0000003410 RMS(Int)=    0.0000018780
 Iter  38:  RMS(Cart)=    0.0000003309 RMS(Int)=    0.0000018291
 Iter  39:  RMS(Cart)=    0.0000003211 RMS(Int)=    0.0000017816
 Iter  40:  RMS(Cart)=    0.0000003117 RMS(Int)=    0.0000017356
 Iter  41:  RMS(Cart)=    0.0000003025 RMS(Int)=    0.0000016909
 Iter  42:  RMS(Cart)=    0.0000002936 RMS(Int)=    0.0000016475
 Iter  43:  RMS(Cart)=    0.0000002850 RMS(Int)=    0.0000016054
 Iter  44:  RMS(Cart)=    0.0000002767 RMS(Int)=    0.0000015645
 Iter  45:  RMS(Cart)=    0.0000002687 RMS(Int)=    0.0000015248
 Iter  46:  RMS(Cart)=    0.0000002609 RMS(Int)=    0.0000014863
 Iter  47:  RMS(Cart)=    0.0000002533 RMS(Int)=    0.0000014489
 Iter  48:  RMS(Cart)=    0.0000002460 RMS(Int)=    0.0000014126
 Iter  49:  RMS(Cart)=    0.0000002389 RMS(Int)=    0.0000013773
 Iter  50:  RMS(Cart)=    0.0000002320 RMS(Int)=    0.0000013431
 Iter  51:  RMS(Cart)=    0.0000002254 RMS(Int)=    0.0000013098
 Iter  52:  RMS(Cart)=    0.0000002189 RMS(Int)=    0.0000012775
 Iter  53:  RMS(Cart)=    0.0000002127 RMS(Int)=    0.0000012461
 Iter  54:  RMS(Cart)=    0.0000002066 RMS(Int)=    0.0000012157
 Iter  55:  RMS(Cart)=    0.0000002007 RMS(Int)=    0.0000011860
 Iter  56:  RMS(Cart)=    0.0000001951 RMS(Int)=    0.0000011573
 Iter  57:  RMS(Cart)=    0.0000001895 RMS(Int)=    0.0000011293
 Iter  58:  RMS(Cart)=    0.0000001842 RMS(Int)=    0.0000011022
 Iter  59:  RMS(Cart)=    0.0000001790 RMS(Int)=    0.0000010758
 Iter  60:  RMS(Cart)=    0.0000001740 RMS(Int)=    0.0000010501
 Iter  61:  RMS(Cart)=    0.0000001691 RMS(Int)=    0.0000010252
 Iter  62:  RMS(Cart)=    0.0000001644 RMS(Int)=    0.0000010010
 Iter  63:  RMS(Cart)=    0.0000001599 RMS(Int)=    0.0000009774
 Iter  64:  RMS(Cart)=    0.0000001554 RMS(Int)=    0.0000009545
 Iter  65:  RMS(Cart)=    0.0000001511 RMS(Int)=    0.0000009323
 Iter  66:  RMS(Cart)=    0.0000001470 RMS(Int)=    0.0000009107
 Iter  67:  RMS(Cart)=    0.0000001429 RMS(Int)=    0.0000008896
 Iter  68:  RMS(Cart)=    0.0000001390 RMS(Int)=    0.0000008692
 Iter  69:  RMS(Cart)=    0.0000001352 RMS(Int)=    0.0000008493
 Iter  70:  RMS(Cart)=    0.0000001315 RMS(Int)=    0.0000008300
 Iter  71:  RMS(Cart)=    0.0000001279 RMS(Int)=    0.0000008112
 Iter  72:  RMS(Cart)=    0.0000001245 RMS(Int)=    0.0000007929
 Iter  73:  RMS(Cart)=    0.0000001211 RMS(Int)=    0.0000007751
 Iter  74:  RMS(Cart)=    0.0000001178 RMS(Int)=    0.0000007578
 Iter  75:  RMS(Cart)=    0.0000001147 RMS(Int)=    0.0000007409
 Iter  76:  RMS(Cart)=    0.0000001116 RMS(Int)=    0.0000007245
 Iter  77:  RMS(Cart)=    0.0000001086 RMS(Int)=    0.0000007086
 Iter  78:  RMS(Cart)=    0.0000001057 RMS(Int)=    0.0000006931
 Iter  79:  RMS(Cart)=    0.0000001029 RMS(Int)=    0.0000006780
 Iter  80:  RMS(Cart)=    0.0000001002 RMS(Int)=    0.0000006633
 Iter  81:  RMS(Cart)=    0.0000000975 RMS(Int)=    0.0000006490
 Iter  82:  RMS(Cart)=    0.0000000950 RMS(Int)=    0.0000006351
 Iter  83:  RMS(Cart)=    0.0000000925 RMS(Int)=    0.0000006216
 Iter  84:  RMS(Cart)=    0.0000000900 RMS(Int)=    0.0000006084
 Iter  85:  RMS(Cart)=    0.0000000877 RMS(Int)=    0.0000005955
 Iter  86:  RMS(Cart)=    0.0000000854 RMS(Int)=    0.0000005830
 Iter  87:  RMS(Cart)=    0.0000000832 RMS(Int)=    0.0000005709
 Iter  88:  RMS(Cart)=    0.0000000810 RMS(Int)=    0.0000005590
 Iter  89:  RMS(Cart)=    0.0000000790 RMS(Int)=    0.0000005475
 Iter  90:  RMS(Cart)=    0.0000000769 RMS(Int)=    0.0000005362
 Iter  91:  RMS(Cart)=    0.0000000750 RMS(Int)=    0.0000005253
 Iter  92:  RMS(Cart)=    0.0000000731 RMS(Int)=    0.0000005146
 Iter  93:  RMS(Cart)=    0.0000000712 RMS(Int)=    0.0000005042
 Iter  94:  RMS(Cart)=    0.0000000694 RMS(Int)=    0.0000004941
 Iter  95:  RMS(Cart)=    0.0000000676 RMS(Int)=    0.0000004842
 Iter  96:  RMS(Cart)=    0.0000000659 RMS(Int)=    0.0000004746
 Iter  97:  RMS(Cart)=    0.0000000643 RMS(Int)=    0.0000004652
 Iter  98:  RMS(Cart)=    0.0000000627 RMS(Int)=    0.0000004561
 Iter  99:  RMS(Cart)=    0.0000000611 RMS(Int)=    0.0000004472
 RMS(Cart) too big - taking linear step, building new B-matrix and trying again
Imposing constraints:
 Iter   0:  RMS(Cart)=    0.0000683057 RMS(Int)=    0.0000310235
 Iter   1:  RMS(Cart)=    0.0000367299 RMS(Int)=    0.0000184421
 Iter   2:  RMS(Cart)=    0.0000212138 RMS(Int)=    0.0000120650
 Iter   3:  RMS(Cart)=    0.0000130409 RMS(Int)=    0.0000086315
 Iter   4:  RMS(Cart)=    0.0000084170 RMS(Int)=    0.0000066952
 Iter   5:  RMS(Cart)=    0.0000056408 RMS(Int)=    0.0000055748
 Iter   6:  RMS(Cart)=    0.0000039017 RMS(Int)=    0.0000049129
 Iter   7:  RMS(Cart)=    0.0000027821 RMS(Int)=    0.0000045066
 Iter   8:  RMS(Cart)=    0.0000020503 RMS(Int)=    0.0000042398
 Iter   9:  RMS(Cart)=    0.0000015693 RMS(Int)=    0.0000040480
 Iter  10:  RMS(Cart)=    0.0000012530 RMS(Int)=    0.0000038966
 Iter  11:  RMS(Cart)=    0.0000010451 RMS(Int)=    0.0000037675
 Iter  12:  RMS(Cart)=    0.0000009074 RMS(Int)=    0.0000036514
 Iter  13:  RMS(Cart)=    0.0000008142 RMS(Int)=    0.0000035436
 Iter  14:  RMS(Cart)=    0.0000007489 RMS(Int)=    0.0000034413
 Iter  15:  RMS(Cart)=    0.0000007009 RMS(Int)=    0.0000033435
 Iter  16:  RMS(Cart)=    0.0000006636 RMS(Int)=    0.0000032493
 Iter  17:  RMS(Cart)=    0.0000006331 RMS(Int)=    0.0000031583
 Iter  18:  RMS(Cart)=    0.0000006071 RMS(Int)=    0.0000030703
 Iter  19:  RMS(Cart)=    0.0000005842 RMS(Int)=    0.0000029851
 Iter  20:  RMS(Cart)=    0.0000005634 RMS(Int)=    0.0000029026
 Iter  21:  RMS(Cart)=    0.0000005442 RMS(Int)=    0.0000028226
 Iter  22:  RMS(Cart)=    0.0000005263 RMS(Int)=    0.0000027451
 Iter  23:  RMS(Cart)=    0.0000005093 RMS(Int)=    0.0000026700
 Iter  24:  RMS(Cart)=    0.0000004932 RMS(Int)=    0.0000025972
 Iter  25:  RMS(Cart)=    0.0000004778 RMS(Int)=    0.0000025267
 Iter  26:  RMS(Cart)=    0.0000004630 RMS(Int)=    0.0000024582
 Iter  27:  RMS(Cart)=    0.0000004488 RMS(Int)=    0.0000023919
 Iter  28:  RMS(Cart)=    0.0000004351 RMS(Int)=    0.0000023276
 Iter  29:  RMS(Cart)=    0.0000004219 RMS(Int)=    0.0000022652
 Iter  30:  RMS(Cart)=    0.0000004091 RMS(Int)=    0.0000022047
 Iter  31:  RMS(Cart)=    0.0000003968 RMS(Int)=    0.0000021461
 Iter  32:  RMS(Cart)=    0.0000003849 RMS(Int)=    0.0000020891
 Iter  33:  RMS(Cart)=    0.0000003734 RMS(Int)=    0.0000020340
 Iter  34:  RMS(Cart)=    0.0000003622 RMS(Int)=    0.0000019804
 Iter  35:  RMS(Cart)=    0.0000003514 RMS(Int)=    0.0000019285
 Iter  36:  RMS(Cart)=    0.0000003410 RMS(Int)=    0.0000018781
 Iter  37:  RMS(Cart)=    0.0000003309 RMS(Int)=    0.0000018291
 Iter  38:  RMS(Cart)=    0.0000003211 RMS(Int)=    0.0000017817
 Iter  39:  RMS(Cart)=    0.0000003117 RMS(Int)=    0.0000017356
 Iter  40:  RMS(Cart)=    0.0000003025 RMS(Int)=    0.0000016909
 Iter  41:  RMS(Cart)=    0.0000002936 RMS(Int)=    0.0000016476
 Iter  42:  RMS(Cart)=    0.0000002850 RMS(Int)=    0.0000016055
 Iter  43:  RMS(Cart)=    0.0000002767 RMS(Int)=    0.0000015646
 Iter  44:  RMS(Cart)=    0.0000002687 RMS(Int)=    0.0000015249
 Iter  45:  RMS(Cart)=    0.0000002609 RMS(Int)=    0.0000014864
 Iter  46:  RMS(Cart)=    0.0000002533 RMS(Int)=    0.0000014490
 Iter  47:  RMS(Cart)=    0.0000002460 RMS(Int)=    0.0000014127
 Iter  48:  RMS(Cart)=    0.0000002389 RMS(Int)=    0.0000013774
 Iter  49:  RMS(Cart)=    0.0000002320 RMS(Int)=    0.0000013432
 Iter  50:  RMS(Cart)=    0.0000002254 RMS(Int)=    0.0000013099
 Iter  51:  RMS(Cart)=    0.0000002189 RMS(Int)=    0.0000012776
 Iter  52:  RMS(Cart)=    0.0000002127 RMS(Int)=    0.0000012462
 Iter  53:  RMS(Cart)=    0.0000002066 RMS(Int)=    0.0000012157
 Iter  54:  RMS(Cart)=    0.0000002007 RMS(Int)=    0.0000011861
 Iter  55:  RMS(Cart)=    0.0000001951 RMS(Int)=    0.0000011573
 Iter  56:  RMS(Cart)=    0.0000001895 RMS(Int)=    0.0000011294
 Iter  57:  RMS(Cart)=    0.0000001842 RMS(Int)=    0.0000011022
 Iter  58:  RMS(Cart)=    0.0000001790 RMS(Int)=    0.0000010758
 Iter  59:  RMS(Cart)=    0.0000001740 RMS(Int)=    0.0000010502
 Iter  60:  RMS(Cart)=    0.0000001691 RMS(Int)=    0.0000010253
 Iter  61:  RMS(Cart)=    0.0000001644 RMS(Int)=    0.0000010011
 Iter  62:  RMS(Cart)=    0.0000001599 RMS(Int)=    0.0000009775
CONVERGED
Small eigenvalue found = 6.215e-03
Small eigenvalue found = 1.481e-02
Small eigenvalue found = 1.941e-02
The first mode is                       ....   91
The number of degrees of freedom        ....   81
Storing new coordinates                 .... done

    -----------------------------------------------------------------
                    Redundant Internal Coordinates


    -----------------------------------------------------------------
         Definition                    Initial Value    Approx d2E/dq
    -----------------------------------------------------------------
      1. B(C   1,C   0)                  1.5333         0.369027   
      2. B(C   2,C   1)                  1.5471         0.350825   
      3. B(C   3,C   2)                  1.5492         0.348147   
      4. B(O   4,C   0)                  1.4668         0.422031   
      5. B(O   4,C   3)                  1.4789         0.403699   
      6. B(H   5,C   0)                  1.0919         0.357632   
      7. B(H   6,C   1)                  1.0958         0.352561   
      8. B(H   7,C   1)                  1.0951         0.353431   
      9. B(H   8,C   2)                  1.0945         0.354166   
     10. B(H   9,C   2)                  1.0966         0.351438   
     11. B(H  10,C   3)                  1.0954         0.353010   
     12. B(H  11,C   3)                  1.0939         0.354989   
     13. B(H  13,C  12)                  1.0973         0.350528   
     14. B(H  14,C  12)                  1.0969         0.351068   
     15. B(O  15,C   0)                  1.5525         0.307993   
     16. B(O  15,C  12)                  1.5537         0.306636   
     17. B(C  16,C  12)                  1.5541         0.341932   
     18. B(C  17,C  16)                  1.5327         0.369898   
     19. B(C  18,C  17)                  1.5472         0.350673   
     20. B(C  19,C  18)                  1.5489         0.348521   
     21. B(O  20,C  16)                  1.4677         0.420619   
     22. B(O  20,C  19)                  1.4782         0.404778   
     23. B(H  21,C  16)                  1.0914         0.358270   
     24. B(H  22,C  17)                  1.0959         0.352431   
     25. B(O  23,C  17)                  1.5528         0.307692   
     26. B(H  24,C  18)                  1.0947         0.353931   
     27. B(H  25,C  18)                  1.0972         0.350687   
     28. B(H  26,C  19)                  1.0953         0.353197   
     29. B(H  27,C  19)                  1.0932         0.355952   
     30. B(H  28,O  23)                  1.0956         0.315973   
     31. A(O   4,C   0,H   5)          107.0169         0.328541   
     32. A(C   1,C   0,O  15)          111.3059         0.348740   
     33. A(C   1,C   0,O   4)          104.2508         0.367935   
     34. A(O   4,C   0,O  15)          110.4723         0.354548   
     35. A(C   1,C   0,H   5)          114.4405         0.323302   
     36. A(H   5,C   0,O  15)          109.1543         0.312058   
     37. A(C   0,C   1,C   2)          101.6783         0.358729   
     38. A(C   2,C   1,H   7)          112.8333         0.320016   
     39. A(C   2,C   1,H   6)          110.6702         0.319888   
     40. A(C   0,C   1,H   6)          110.0681         0.322546   
     41. A(H   6,C   1,H   7)          108.3679         0.289027   
     42. A(C   0,C   1,H   7)          113.1246         0.322677   
     43. A(C   1,C   2,H   8)          112.8313         0.320125   
     44. A(C   1,C   2,C   3)          103.1285         0.355196   
     45. A(C   1,C   2,H   9)          110.0795         0.319721   
     46. A(C   3,C   2,H   9)          110.6148         0.319321   
     47. A(C   3,C   2,H   8)          112.4033         0.319725   
     48. A(H   8,C   2,H   9)          107.7731         0.288977   
     49. A(O   4,C   3,H  10)          109.1301         0.325449   
     50. A(C   2,C   3,H  10)          112.5254         0.319554   
     51. A(C   2,C   3,O   4)          106.5268         0.361529   
     52. A(O   4,C   3,H  11)          107.1240         0.325748   
     53. A(H  10,C   3,H  11)          108.8727         0.289284   
     54. A(C   2,C   3,H  11)          112.4569         0.319846   
     55. A(C   0,O   4,C   3)          108.3129         0.371320   
     56. A(H  14,C  12,C  16)          107.7340         0.318329   
     57. A(H  13,C  12,H  14)          108.2598         0.288462   
     58. A(H  13,C  12,O  15)          109.2561         0.310825   
     59. A(H  14,C  12,O  15)          110.4751         0.310902   
     60. A(O  15,C  12,C  16)          112.6824         0.344041   
     61. A(H  13,C  12,C  16)          108.3122         0.318249   
     62. A(C   0,O  15,C  12)          115.1734         0.336028   
     63. A(C  12,C  16,C  17)          111.3091         0.357309   
     64. A(C  12,C  16,O  20)          110.3961         0.362954   
     65. A(C  17,C  16,O  20)          104.2766         0.367873   
     66. A(C  12,C  16,H  21)          109.1629         0.319386   
     67. A(C  17,C  16,H  21)          114.4872         0.323522   
     68. A(O  20,C  16,H  21)          107.0024         0.328456   
     69. A(C  16,C  17,C  18)          101.6747         0.358846   
     70. A(C  16,C  17,H  22)          110.0260         0.322651   
     71. A(C  18,C  17,H  22)          110.6232         0.319846   
     72. A(C  16,C  17,O  23)          113.1198         0.348822   
     73. A(C  18,C  17,O  23)          112.8970         0.345702   
     74. A(H  22,C  17,O  23)          108.3954         0.311270   
     75. A(C  17,C  18,C  19)          103.1444         0.355235   
     76. A(C  17,C  18,H  24)          112.7822         0.320068   
     77. A(C  19,C  18,H  24)          112.4873         0.319746   
     78. A(C  17,C  18,H  25)          110.0283         0.319587   
     79. A(C  19,C  18,H  25)          110.6489         0.319266   
     80. A(H  24,C  18,H  25)          107.7405         0.288850   
     81. A(C  18,C  19,O  20)          106.5557         0.361760   
     82. A(C  18,C  19,H  26)          112.4869         0.319638   
     83. A(O  20,C  19,H  26)          109.1452         0.325620   
     84. A(C  18,C  19,H  27)          112.4231         0.320044   
     85. A(O  20,C  19,H  27)          107.1696         0.326036   
     86. A(H  26,C  19,H  27)          108.8619         0.289431   
     87. A(C  16,O  20,C  19)          108.2909         0.371277   
     88. A(C  17,O  23,H  28)          109.6237         0.303317   
     89. D(H   7,C   1,C   0,H   5)     82.1534         0.010890   
     90. D(C   2,C   1,C   0,O  15)     79.0886         0.010890   
     91. D(H   7,C   1,C   0,O  15)    -42.1860         0.010890   
     92. D(H   6,C   1,C   0,O   4)     77.3246         0.010890   
     93. D(H   6,C   1,C   0,O  15)   -163.5721         0.010890   
     94. D(H   6,C   1,C   0,H   5)    -39.2327         0.010890   
     95. D(H   7,C   1,C   0,O   4)   -161.2893         0.010890   
     96. D(C   2,C   1,C   0,O   4)    -40.0146         0.010890 C 
     97. D(C   2,C   1,C   0,H   5)   -156.5720         0.010890   
     98. D(H   9,C   2,C   1,H   6)    160.0777         0.009912   
     99. D(H   8,C   2,C   1,C   0)    156.5478         0.009912   
    100. D(H   8,C   2,C   1,H   6)     39.6450         0.009912   
    101. D(C   3,C   2,C   1,C   0)     35.0268         0.009912 C 
    102. D(H   8,C   2,C   1,H   7)    -81.9750         0.009912   
    103. D(H   9,C   2,C   1,C   0)    -83.0195         0.009912   
    104. D(C   3,C   2,C   1,H   6)    -81.8760         0.009912   
    105. D(H   9,C   2,C   1,H   7)     38.4577         0.009912   
    106. D(C   3,C   2,C   1,H   7)    156.5040         0.009912   
    107. D(H  11,C   3,C   2,H   9)   -143.4627         0.009774   
    108. D(O   4,C   3,C   2,H   8)   -140.0068         0.009774   
    109. D(O   4,C   3,C   2,H   9)     99.4741         0.009774   
    110. D(H  10,C   3,C   2,C   1)   -137.7432         0.009774   
    111. D(H  10,C   3,C   2,H   8)    100.4467         0.009774   
    112. D(H  10,C   3,C   2,H   9)    -20.0724         0.009774   
    113. D(H  11,C   3,C   2,C   1)     98.8666         0.009774   
    114. D(O   4,C   3,C   2,C   1)    -18.1967         0.009774 C 
    115. D(H  11,C   3,C   2,H   8)    -22.9435         0.009774   
    116. D(C   3,O   4,C   0,C   1)     29.5920         0.014035 C 
    117. D(C   3,O   4,C   0,H   5)    151.2039         0.014035   
    118. D(C   3,O   4,C   0,O  15)    -90.0762         0.014035   
    119. D(C   0,O   4,C   3,C   2)     -6.8730         0.012866 C 
    120. D(C   0,O   4,C   3,H  10)    114.8547         0.012866   
    121. D(C   0,O   4,C   3,H  11)   -127.4270         0.012866   
    122. D(C   0,O  15,C  12,C  16)     30.0000         0.007733 C 
    123. D(C  12,O  15,C   0,O   4)    180.0000         0.007793 C 
    124. D(C  12,O  15,C   0,H   5)    -62.5893         0.007793   
    125. D(C   0,O  15,C  12,H  14)    -90.5608         0.007733   
    126. D(C   0,O  15,C  12,H  13)    150.4455         0.007733   
    127. D(C  12,O  15,C   0,C   1)     64.6822         0.007793   
    128. D(C  17,C  16,C  12,H  13)    -56.2840         0.009457   
    129. D(H  21,C  16,C  12,H  14)     59.4808         0.009457   
    130. D(C  17,C  16,C  12,O  15)     64.7018         0.009457   
    131. D(O  20,C  16,C  12,H  13)     59.0212         0.009457   
    132. D(O  20,C  16,C  12,H  14)    -57.8729         0.009457   
    133. D(O  20,C  16,C  12,O  15)   -179.9930         0.009457 C 
    134. D(C  17,C  16,C  12,H  14)   -173.1781         0.009457   
    135. D(H  21,C  16,C  12,H  13)    176.3749         0.009457   
    136. D(H  21,C  16,C  12,O  15)    -62.6392         0.009457   
    137. D(C  18,C  17,C  16,C  12)     79.0773         0.010938   
    138. D(C  18,C  17,C  16,O  20)    -39.9523         0.010938 C 
    139. D(C  18,C  17,C  16,H  21)   -156.5325         0.010938   
    140. D(H  22,C  17,C  16,C  12)   -163.6569         0.010938   
    141. D(H  22,C  17,C  16,O  20)     77.3135         0.010938   
    142. D(H  22,C  17,C  16,H  21)    -39.2666         0.010938   
    143. D(O  23,C  17,C  16,C  12)    -42.2691         0.010938   
    144. D(O  23,C  17,C  16,O  20)   -161.2987         0.010938   
    145. D(O  23,C  17,C  16,H  21)     82.1212         0.010938   
    146. D(H  24,C  18,C  17,O  23)    -81.9000         0.009905   
    147. D(C  19,C  18,C  17,H  22)    -81.8404         0.009905   
    148. D(C  19,C  18,C  17,O  23)    156.4933         0.009905   
    149. D(H  24,C  18,C  17,C  16)    156.5988         0.009905   
    150. D(C  19,C  18,C  17,C  16)     34.9922         0.009905 C 
    151. D(H  24,C  18,C  17,H  22)     39.7662         0.009905   
    152. D(H  25,C  18,C  17,C  16)    -83.0788         0.009905   
    153. D(H  25,C  18,C  17,H  22)    160.0886         0.009905   
    154. D(H  25,C  18,C  17,O  23)     38.4224         0.009905   
    155. D(H  27,C  19,C  18,H  25)   -143.4357         0.009793   
    156. D(O  20,C  19,C  18,H  24)   -139.9949         0.009793   
    157. D(O  20,C  19,C  18,H  25)     99.4463         0.009793   
    158. D(H  26,C  19,C  18,C  17)   -137.7508         0.009793   
    159. D(H  26,C  19,C  18,H  24)    100.4435         0.009793   
    160. D(H  26,C  19,C  18,H  25)    -20.1152         0.009793   
    161. D(H  27,C  19,C  18,C  17)     98.9287         0.009793   
    162. D(O  20,C  19,C  18,C  17)    -18.1893         0.009793 C 
    163. D(H  27,C  19,C  18,H  24)    -22.8770         0.009793   
    164. D(C  19,O  20,C  16,C  12)    -90.1064         0.013943   
    165. D(C  19,O  20,C  16,C  17)     29.5420         0.013943 C 
    166. D(C  19,O  20,C  16,H  21)    151.2140         0.013943   
    167. D(C  16,O  20,C  19,C  18)     -6.8356         0.012933 C 
    168. D(C  16,O  20,C  19,H  26)    114.8716         0.012933   
    169. D(C  16,O  20,C  19,H  27)   -127.3896         0.012933   
    170. D(H  28,O  23,C  17,C  16)     57.7205         0.007780   
    171. D(H  28,O  23,C  17,C  18)    -57.0616         0.007780   
    172. D(H  28,O  23,C  17,H  22)   -179.9769         0.007780   
    -----------------------------------------------------------------

Number of atoms                         .... 29
Number of degrees of freedom            .... 172

         *************************************************************
         *                GEOMETRY OPTIMIZATION CYCLE   1            *
         *************************************************************
---------------------------------
CARTESIAN COORDINATES (ANGSTROEM)
---------------------------------
  C    -21.048242   26.222029   46.250992
  C    -20.361028   27.557895   45.943933
  C    -20.328845   28.221894   47.340921
  C    -20.110009   27.021878   48.295941
  O    -20.473261   25.806921   47.534972
  H    -20.833418   25.427950   45.533027
  H    -19.344073   27.381714   45.575894
  H    -20.897955   28.156974   45.200944
  H    -19.542707   28.977756   47.433872
  H    -21.288750   28.710063   47.547958
  H    -20.732958   27.082007   49.194968
  H    -19.064015   26.912701   48.596897
  C    -23.309242   26.834090   45.072024
  H    -24.332220   26.437033   45.074099
  H    -23.365304   27.928080   45.014894
  O    -22.586214   26.394233   46.375056
  C    -22.592099   26.329203   43.789059
  C    -22.617854   24.799194   43.702082
  C    -24.053795   24.538950   43.188032
  C    -24.311944   25.737894   42.242002
  O    -23.315125   26.772056   42.591023
  H    -21.594162   26.768351   43.740098
  H    -21.877768   24.452300   42.972119
  O    -22.327801   24.106263   45.061107
  H    -24.153621   23.574925   42.679045
  H    -24.760830   24.548851   44.027003
  H    -25.318014   26.154737   42.358954
  H    -24.155859   25.480900   41.191013
  H    -23.057886   24.439160   45.807070

----------------------------
CARTESIAN COORDINATES (A.U.)
----------------------------
  NO LB      ZA    FRAG     MASS         X           Y           Z
   0 C     6.0000    0    12.011  -39.775413   49.552453   87.401708
   1 C     6.0000    0    12.011  -38.476766   52.076874   86.821452
   2 C     6.0000    0    12.011  -38.415949   53.331650   89.461375
   3 C     6.0000    0    12.011  -38.002410   51.063949   91.266103
   4 O     8.0000    0    15.999  -38.688856   48.768013   89.828079
   5 H     1.0000    0     1.008  -39.369455   48.051861   86.044951
   6 H     1.0000    0     1.008  -36.555001   51.743941   86.125957
   7 H     1.0000    0     1.008  -39.491411   53.208969   85.417406
   8 H     1.0000    0     1.008  -36.930363   54.760023   89.637028
   9 H     1.0000    0     1.008  -40.229908   54.254157   89.852618
  10 H     1.0000    0     1.008  -39.179612   51.177577   92.965017
  11 H     1.0000    0     1.008  -36.025767   50.857635   91.834827
  12 C     6.0000    0    12.011  -44.048084   50.709081   85.173781
  13 H     1.0000    0     1.008  -45.981232   49.958751   85.177704
  14 H     1.0000    0     1.008  -44.154027   52.776422   85.065821
  15 O     8.0000    0    15.999  -42.681759   49.877873   87.636156
  16 C     6.0000    0    12.011  -42.692880   49.754983   82.749329
  17 C     6.0000    0    12.011  -42.741550   46.863684   82.584967
  18 C     6.0000    0    12.011  -45.455085   46.371895   81.613552
  19 C     6.0000    0    12.011  -45.942915   48.637570   79.825816
  20 O     8.0000    0    15.999  -44.059201   50.591854   80.485369
  21 H     1.0000    0     1.008  -40.807053   50.584853   82.656806
  22 H     1.0000    0     1.008  -41.342990   46.208150   81.205536
  23 O     8.0000    0    15.999  -42.193430   45.554235   85.153151
  24 H     1.0000    0     1.008  -45.643728   44.550151   80.651707
  25 H     1.0000    0     1.008  -46.791188   46.390605   83.198978
  26 H     1.0000    0     1.008  -47.844113   49.425290   80.046822
  27 H     1.0000    0     1.008  -45.647959   48.151923   77.839734
  28 H     1.0000    0     1.008  -43.573090   46.183319   86.562817

--------------------------------
INTERNAL COORDINATES (ANGSTROEM)
--------------------------------
 C      0   0   0     0.000000000000     0.00000000     0.00000000
 C      1   0   0     1.533334275362     0.00000000     0.00000000
 C      2   1   0     1.547103422529   101.67907390     0.00000000
 C      3   2   1     1.549188819996   103.12737509    35.02687180
 O      1   2   3     1.466801281701   104.24948604   319.98542309
 H      1   2   3     1.091872245274   114.43876658   203.42640133
 H      2   1   3     1.095759553917   110.06782188   117.34000099
 H      2   1   3     1.095088580892   113.12442239   238.72597460
 H      3   2   1     1.094523183857   112.83161078   156.54780790
 H      3   2   1     1.096628013503   110.07982737   276.98070077
 H      4   3   2     1.095413164062   112.52534669   222.25678475
 H      4   3   2     1.093891219455   112.45670684    98.86663270
 C      1   2   3     2.622347421682    95.33299893   108.21776102
 H     13   1   2     1.097334042122   135.93454925   195.74153838
 H     13   1   2     1.096914308412   107.46595292   338.62150067
 O      1   2   3     1.552547583812   111.30349807    79.08752829
 C     13   1   2     1.554092339599    84.11947088    85.40468970
 C     17  13   1     1.532692076054   111.30992837    80.33477617
 C     18  17  13     1.547220734091   101.67437954    79.07777131
 C     19  18  17     1.548896704109   103.14481525    34.99212208
 O     17  13   1     1.467713187241   110.39593901   195.64094877
 H     17  13   1     1.091387190689   109.16215454   312.99308196
 H     18  17  13     1.095859936306   110.02605041   196.34335302
 O     18  17  13     1.552813575417   113.11990625   317.73120582
 H     19  18  17     1.094704069601   112.78209133   156.59880433
 H     19  18  17     1.097210098386   110.02814814   276.92110130
 H     20  19  18     1.095268916751   112.48693062   222.24922773
 H     20  19  18     1.093154151984   112.42317641    98.92870952
 H     24  18  17     1.095584318982   109.62366754    57.72045656

---------------------------
INTERNAL COORDINATES (A.U.)
---------------------------
 C      0   0   0     0.000000000000     0.00000000     0.00000000
 C      1   0   0     2.897581852189     0.00000000     0.00000000
 C      2   1   0     2.923601769431   101.67907390     0.00000000
 C      3   2   1     2.927542599525   103.12737509    35.02687180
 O      1   2   3     2.771852715300   104.24948604   319.98542309
 H      1   2   3     2.063339516798   114.43876658   203.42640133
 H      2   1   3     2.070685465531   110.06782188   117.34000099
 H      2   1   3     2.069417510270   113.12442239   238.72597460
 H      3   2   1     2.068349064717   112.83161078   156.54780790
 H      3   2   1     2.072326616307   110.07982737   276.98070077
 H      4   3   2     2.070030883569   112.52534669   222.25678475
 H      4   3   2     2.067154825070   112.45670684    98.86663270
 C      1   2   3     4.955518454973    95.33299893   108.21776102
 H     13   1   2     2.073660817040   135.93454925   195.74153838
 H     13   1   2     2.072867635279   107.46595292   338.62150067
 O      1   2   3     2.933889743286   111.30349807    79.08752829
 C     13   1   2     2.936808908667    84.11947088    85.40468970
 C     17  13   1     2.896368271374   111.30992837    80.33477617
 C     18  17  13     2.923823456156   101.67437954    79.07777131
 C     19  18  17     2.926990580499   103.14481525    34.99212208
 O     17  13   1     2.773575967029   110.39593901   195.64094877
 H     17  13   1     2.062422896472   109.16215454   312.99308196
 H     18  17  13     2.070875160754   110.02605041   196.34335302
 O     18  17  13     2.934392394574   113.11990625   317.73120582
 H     19  18  17     2.068690889234   112.78209133   156.59880433
 H     19  18  17     2.073426597322   110.02814814   276.92110130
 H     20  19  18     2.069758295655   112.48693062   222.24922773
 H     20  19  18     2.065761969409   112.42317641    98.92870952
 H     24  18  17     2.070354319495   109.62366754    57.72045656

---------------------
BASIS SET INFORMATION
---------------------
There are 3 groups of distinct atoms

 Group   1 Type C   : 10s4p contracted to 3s2p pattern {631/31}
 Group   2 Type O   : 10s4p contracted to 3s2p pattern {631/31}
 Group   3 Type H   : 4s contracted to 2s pattern {31}

Atom   0C    basis set group =>   1
Atom   1C    basis set group =>   1
Atom   2C    basis set group =>   1
Atom   3C    basis set group =>   1
Atom   4O    basis set group =>   2
Atom   5H    basis set group =>   3
Atom   6H    basis set group =>   3
Atom   7H    basis set group =>   3
Atom   8H    basis set group =>   3
Atom   9H    basis set group =>   3
Atom  10H    basis set group =>   3
Atom  11H    basis set group =>   3
Atom  12C    basis set group =>   1
Atom  13H    basis set group =>   3
Atom  14H    basis set group =>   3
Atom  15O    basis set group =>   2
Atom  16C    basis set group =>   1
Atom  17C    basis set group =>   1
Atom  18C    basis set group =>   1
Atom  19C    basis set group =>   1
Atom  20O    basis set group =>   2
Atom  21H    basis set group =>   3
Atom  22H    basis set group =>   3
Atom  23O    basis set group =>   2
Atom  24H    basis set group =>   3
Atom  25H    basis set group =>   3
Atom  26H    basis set group =>   3
Atom  27H    basis set group =>   3
Atom  28H    basis set group =>   3
------------------------------------------------------------------------------
                           ORCA GTO INTEGRAL CALCULATION
------------------------------------------------------------------------------

                         BASIS SET STATISTICS AND STARTUP INFO

 # of primitive gaussian shells          ...  246
 # of primitive gaussian functions       ...  350
 # of contracted shells                  ...   97
 # of contracted basis functions         ...  149
 Highest angular momentum                ...    1
 Maximum contraction depth               ...    6
 Integral package used                   ... LIBINT
 Integral threshhold            Thresh   ...  2.500e-11
 Primitive cut-off              TCut     ...  2.500e-12


------------------------------ INTEGRAL EVALUATION ----------------------------


 * One electron integrals 
 Pre-screening matrix                    ... done
 Shell pair data                         ... done (   0.002 sec)

-------------------------------------------------------------------------------
                                 ORCA SCF
-------------------------------------------------------------------------------

------------
SCF SETTINGS
------------
Hamiltonian:
 Density Functional     Method          .... DFT(GTOs)
 Exchange Functional    Exchange        .... B88
   X-Alpha parameter    XAlpha          ....  0.666667
   Becke's b parameter  XBeta           ....  0.004200
 Correlation Functional Correlation     .... LYP
 LDA part of GGA corr.  LDAOpt          .... VWN-5
 Gradients option       PostSCFGGA      .... off
 Hybrid DFT is turned on
   Fraction HF Exchange ScalHFX         ....  0.200000
   Scaling of DF-GGA-X  ScalDFX         ....  0.720000
   Scaling of DF-GGA-C  ScalDFC         ....  0.810000
   Scaling of DF-LDA-C  ScalLDAC        ....  1.000000
   Perturbative correction              ....  0.000000
   Density functional embedding theory  .... OFF
   NL short-range parameter             ....  4.800000


General Settings:
 Integral files         IntName         .... project_8051/ensemble_180_30
 Hartree-Fock type      HFTyp           .... RHF
 Total Charge           Charge          ....    0
 Multiplicity           Mult            ....    1
 Number of Electrons    NEL             ....  102
 Basis Dimension        Dim             ....  149
 Nuclear Repulsion      ENuc            ....    890.2054582012 Eh

Convergence Acceleration:
 DIIS                   CNVDIIS         .... on
   Start iteration      DIISMaxIt       ....    12
   Startup error        DIISStart       ....  0.200000
   # of expansion vecs  DIISMaxEq       ....     5
   Bias factor          DIISBfac        ....   1.050
   Max. coefficient     DIISMaxC        ....  10.000
 Newton-Raphson         CNVNR           .... off
 SOSCF                  CNVSOSCF        .... on
   Start iteration      SOSCFMaxIt      ....   150
   Startup grad/error   SOSCFStart      ....  0.003300
 Level Shifting         CNVShift        .... on
   Level shift para.    LevelShift      ....    0.2500
   Turn off err/grad.   ShiftErr        ....    0.0010
 Zerner damping         CNVZerner       .... off
 Static damping         CNVDamp         .... on
   Fraction old density DampFac         ....    0.7000
   Max. Damping (<1)    DampMax         ....    0.9800
   Min. Damping (>=0)   DampMin         ....    0.0000
   Turn off err/grad.   DampErr         ....    0.1000
 Fernandez-Rico         CNVRico         .... off

SCF Procedure:
 Maximum # iterations   MaxIter         ....   125
 SCF integral mode      SCFMode         .... Direct
   Integral package                     .... LIBINT
 Reset frequency        DirectResetFreq ....    20
 Integral Threshold     Thresh          ....  2.500e-11 Eh
 Primitive CutOff       TCut            ....  2.500e-12 Eh

Convergence Tolerance:
 Convergence Check Mode ConvCheckMode   .... Total+1el-Energy
 Convergence forced     ConvForced      .... 0
 Energy Change          TolE            ....  1.000e-08 Eh
 1-El. energy change                    ....  1.000e-05 Eh
 Orbital Gradient       TolG            ....  1.000e-05
 Orbital Rotation angle TolX            ....  1.000e-05
 DIIS Error             TolErr          ....  5.000e-07


Diagonalization of the overlap matrix:
Smallest eigenvalue                        ... 3.949e-03
Time for diagonalization                   ...    0.006 sec
Threshold for overlap eigenvalues          ... 1.000e-08
Number of eigenvalues below threshold      ... 0
Time for construction of square roots      ...    0.082 sec
Total time needed                          ...    0.088 sec

-------------------
DFT GRID GENERATION
-------------------

General Integration Accuracy     IntAcc      ...  4.340
Radial Grid Type                 RadialGrid  ... Gauss-Chebyshev
Angular Grid (max. acc.)         AngularGrid ... Lebedev-110
Angular grid pruning method      GridPruning ... 3 (G Style)
Weight generation scheme         WeightScheme... Becke
Basis function cutoff            BFCut       ...    1.0000e-11
Integration weight cutoff        WCut        ...    1.0000e-14
Grids for H and He will be reduced by one unit

# of grid points (after initial pruning)     ...  34472 (   0.0 sec)
# of grid points (after weights+screening)   ...  30876 (   0.3 sec)
nearest neighbour list constructed           ...    0.0 sec
Grid point re-assignment to atoms done       ...    0.0 sec
Grid point division into batches done        ...    0.0 sec
Reduced shell lists constructed in    0.4 sec

Total number of grid points                  ...    30876
Total number of batches                      ...      496
Average number of points per batch           ...       62
Average number of grid points per atom       ...     1065
Average number of shells per batch           ...    60.17 (62.03%)
Average number of basis functions per batch  ...    97.73 (65.59%)
Average number of large shells per batch     ...    43.35 (72.05%)
Average number of large basis fcns per batch ...    71.77 (73.43%)
Maximum spatial batch extension              ...  19.44, 20.09, 18.27 au
Average spatial batch extension              ...   3.29,  3.40,  3.25 au

Time for grid setup =    1.727 sec

------------------------------
INITIAL GUESS: MODEL POTENTIAL
------------------------------
Loading Hartree-Fock densities                     ... done
Calculating cut-offs                               ... done
Setting up the integral package                    ... done
Initializing the effective Hamiltonian             ... done
Starting the Coulomb interaction                   ... done (   0.4 sec)
Reading the grid                                   ... done
Mapping shells                                     ... done
Starting the XC term evaluation                    ... done (   0.5 sec)
  promolecular density results
     # of electrons  =    101.997995065
     EX              =    -83.680202535
     EC              =     -3.466572203
     EX+EC           =    -87.146774738
Transforming the Hamiltonian                       ... done (   0.3 sec)
Diagonalizing the Hamiltonian                      ... done (   0.0 sec)
Back transforming the eigenvectors                 ... done (   0.0 sec)
Now organizing SCF variables                       ... done
                      ------------------
                      INITIAL GUESS DONE (   3.8 sec)
                      ------------------
--------------
SCF ITERATIONS
--------------
ITER       Energy         Delta-E        Max-DP      RMS-DP      [F,P]     Damp
               ***  Starting incremental Fock matrix formation  ***
  0   -652.5406781147   0.000000000000 0.07447330  0.00291965  0.2319542 0.7000
  1   -652.6729797461  -0.132301631409 0.04167235  0.00200079  0.0922337 0.7000
                               ***Turning on DIIS***
  2   -652.7236540453  -0.050674299171 0.05471410  0.00326413  0.0308493 0.0000
  3   -652.8066160377  -0.082961992391 0.03006104  0.00130398  0.0498376 0.0000
  4   -652.8231799821  -0.016563944366 0.00788501  0.00041099  0.0089726 0.0000
  5   -652.8240742047  -0.000894222589 0.00260520  0.00012858  0.0040041 0.0000
                      *** Initiating the SOSCF procedure ***
                           *** Shutting down DIIS ***
                      *** Re-Reading the Fockian *** 
                      *** Removing any level shift *** 
ITER      Energy       Delta-E        Grad      Rot      Max-DP    RMS-DP
  6   -652.82414677  -0.0000725657  0.000157  0.000157  0.000941  0.000053
               *** Restarting incremental Fock matrix formation ***
  7   -652.82414975  -0.0000029821  0.000115  0.000141  0.000836  0.000026
  8   -652.82414902   0.0000007280  0.000137  0.000097  0.000439  0.000015
  9   -652.82415073  -0.0000017070  0.000020  0.000025  0.000120  0.000005
 10   -652.82415069   0.0000000409  0.000028  0.000015  0.000069  0.000003
                  ***Gradient check signals convergence***
              ***Rediagonalizing the Fockian in SOSCF/NRSCF***

               *****************************************************
               *                     SUCCESS                       *
               *           SCF CONVERGED AFTER  11 CYCLES          *
               *****************************************************

Setting up the final grid:

General Integration Accuracy     IntAcc      ...  4.670
Radial Grid Type                 RadialGrid  ... Gauss-Chebyshev
Angular Grid (max. acc.)         AngularGrid ... Lebedev-302
Angular grid pruning method      GridPruning ... 3 (G Style)
Weight generation scheme         WeightScheme... Becke
Basis function cutoff            BFCut       ...    1.0000e-11
Integration weight cutoff        WCut        ...    1.0000e-14
Grids for H and He will be reduced by one unit

# of grid points (after initial pruning)     ... 135060 (   0.1 sec)
# of grid points (after weights+screening)   ... 118427 (   1.0 sec)
nearest neighbour list constructed           ...    0.0 sec
Grid point re-assignment to atoms done       ...    0.0 sec
Grid point division into batches done        ...    0.5 sec
Reduced shell lists constructed in    1.6 sec

Total number of grid points                  ...   118427
Total number of batches                      ...     1864
Average number of points per batch           ...       63
Average number of grid points per atom       ...     4084
Average number of shells per batch           ...    55.19 (56.90%)
Average number of basis functions per batch  ...    89.85 (60.30%)
Average number of large shells per batch     ...    38.84 (70.37%)
Average number of large basis fcns per batch ...    64.49 (71.78%)
Maximum spatial batch extension              ...  18.13, 22.44, 20.01 au
Average spatial batch extension              ...   2.21,  2.23,  2.22 au

Final grid set up in    7.1 sec
Final integration                            ... done (   7.1 sec)
Change in XC energy                          ...     0.000160386
Integrated number of electrons               ...   102.000036926
Previous integrated no of electrons          ...   102.005041947

----------------
TOTAL SCF ENERGY
----------------

Total Energy       :         -652.82399037 Eh          -17764.24389 eV

Components:
Nuclear Repulsion  :          890.20545820 Eh           24223.72203 eV
Electronic Energy  :        -1543.02944857 Eh          -41987.96592 eV
One Electron Energy:        -2658.07106602 Eh          -72329.79088 eV
Two Electron Energy:         1115.04161744 Eh           30341.82496 eV

Virial components:
Potential Energy   :        -1301.84933233 Eh          -35425.12131 eV
Kinetic Energy     :          649.02534196 Eh           17660.87742 eV
Virial Ratio       :            2.00585285


DFT components:
N(Alpha)           :       51.000018463002 electrons
N(Beta)            :       51.000018463002 electrons
N(Total)           :      102.000036926004 electrons
E(X)               :      -67.605182763095 Eh       
E(C)               :       -4.075878015954 Eh       
E(XC)              :      -71.681060779049 Eh       
DFET-embed. en.    :        0.000000000000 Eh       

---------------
SCF CONVERGENCE
---------------

  Last Energy change         ...   -6.8920e-08  Tolerance :   1.0000e-08
  Last MAX-Density change    ...    1.5254e-05  Tolerance :   1.0000e-07
  Last RMS-Density change    ...    4.9686e-07  Tolerance :   5.0000e-09
  Last Orbital Gradient      ...    2.2050e-06  Tolerance :   1.0000e-05
  Last Orbital Rotation      ...    2.6201e-06  Tolerance :   1.0000e-05

             **** THE GBW FILE WAS UPDATED (project_8051/ensemble_180_30.gbw) ****
             **** DENSITY FILE WAS UPDATED (project_8051/ensemble_180_30.scfp) ****
             **** ENERGY FILE WAS UPDATED (project_8051/ensemble_180_30.en.tmp) ****
             **** THE GBW FILE WAS UPDATED (project_8051/ensemble_180_30.gbw) ****
             **** DENSITY FILE WAS UPDATED (project_8051/ensemble_180_30.scfp) ****
----------------
ORBITAL ENERGIES
----------------

  NO   OCC          E(Eh)            E(eV) 
   0   2.0000     -19.153028      -521.1804 
   1   2.0000     -19.147472      -521.0292 
   2   2.0000     -19.146193      -520.9944 
   3   2.0000     -19.140208      -520.8315 
   4   2.0000     -10.272236      -279.5217 
   5   2.0000     -10.248656      -278.8801 
   6   2.0000     -10.244700      -278.7725 
   7   2.0000     -10.239603      -278.6338 
   8   2.0000     -10.238166      -278.5947 
   9   2.0000     -10.222680      -278.1733 
  10   2.0000     -10.198010      -277.5020 
  11   2.0000     -10.188007      -277.2298 
  12   2.0000     -10.185564      -277.1633 
  13   2.0000      -1.037231       -28.2245 
  14   2.0000      -1.029724       -28.0202 
  15   2.0000      -0.976608       -26.5748 
  16   2.0000      -0.956840       -26.0369 
  17   2.0000      -0.787137       -21.4191 
  18   2.0000      -0.784517       -21.3478 
  19   2.0000      -0.768104       -20.9012 
  20   2.0000      -0.730412       -19.8755 
  21   2.0000      -0.680966       -18.5300 
  22   2.0000      -0.611229       -16.6324 
  23   2.0000      -0.596898       -16.2424 
  24   2.0000      -0.594399       -16.1744 
  25   2.0000      -0.565457       -15.3869 
  26   2.0000      -0.527637       -14.3577 
  27   2.0000      -0.503878       -13.7112 
  28   2.0000      -0.490229       -13.3398 
  29   2.0000      -0.482066       -13.1177 
  30   2.0000      -0.464596       -12.6423 
  31   2.0000      -0.451301       -12.2805 
  32   2.0000      -0.443251       -12.0615 
  33   2.0000      -0.429774       -11.6947 
  34   2.0000      -0.423877       -11.5343 
  35   2.0000      -0.415789       -11.3142 
  36   2.0000      -0.408239       -11.1087 
  37   2.0000      -0.399345       -10.8667 
  38   2.0000      -0.374009       -10.1773 
  39   2.0000      -0.368801       -10.0356 
  40   2.0000      -0.359479        -9.7819 
  41   2.0000      -0.356392        -9.6979 
  42   2.0000      -0.350702        -9.5431 
  43   2.0000      -0.334919        -9.1136 
  44   2.0000      -0.318413        -8.6645 
  45   2.0000      -0.314031        -8.5452 
  46   2.0000      -0.307055        -8.3554 
  47   2.0000      -0.263957        -7.1826 
  48   2.0000      -0.260741        -7.0951 
  49   2.0000      -0.253821        -6.9068 
  50   2.0000      -0.242823        -6.6075 
  51   0.0000       0.035542         0.9672 
  52   0.0000       0.061335         1.6690 
  53   0.0000       0.079555         2.1648 
  54   0.0000       0.082939         2.2569 
  55   0.0000       0.098199         2.6721 
  56   0.0000       0.103835         2.8255 
  57   0.0000       0.111149         3.0245 
  58   0.0000       0.117357         3.1934 
  59   0.0000       0.130945         3.5632 
  60   0.0000       0.140567         3.8250 
  61   0.0000       0.141751         3.8572 
  62   0.0000       0.148806         4.0492 
  63   0.0000       0.154004         4.1907 
  64   0.0000       0.159552         4.3416 
  65   0.0000       0.166687         4.5358 
  66   0.0000       0.170499         4.6395 
  67   0.0000       0.183876         5.0035 
  68   0.0000       0.186106         5.0642 
  69   0.0000       0.199847         5.4381 
  70   0.0000       0.206574         5.6212 
  71   0.0000       0.223146         6.0721 
  72   0.0000       0.224804         6.1172 
  73   0.0000       0.233965         6.3665 
  74   0.0000       0.242405         6.5962 
  75   0.0000       0.254804         6.9336 
  76   0.0000       0.265265         7.2182 
  77   0.0000       0.276652         7.5281 
  78   0.0000       0.284883         7.7521 
  79   0.0000       0.293266         7.9802 
  80   0.0000       0.303590         8.2611 
  81   0.0000       0.521203        14.1827 
  82   0.0000       0.535515        14.5721 
  83   0.0000       0.544867        14.8266 
  84   0.0000       0.553700        15.0669 
  85   0.0000       0.559862        15.2346 
  86   0.0000       0.566693        15.4205 
  87   0.0000       0.573717        15.6116 
  88   0.0000       0.580637        15.7999 
  89   0.0000       0.584798        15.9132 
  90   0.0000       0.598703        16.2915 
  91   0.0000       0.601797        16.3757 
  92   0.0000       0.630168        17.1477 
  93   0.0000       0.637489        17.3469 
  94   0.0000       0.644496        17.5376 
  95   0.0000       0.649387        17.6707 
  96   0.0000       0.663243        18.0478 
  97   0.0000       0.663657        18.0590 
  98   0.0000       0.693466        18.8702 
  99   0.0000       0.712288        19.3823 
 100   0.0000       0.734329        19.9821 
 101   0.0000       0.775723        21.1085 
 102   0.0000       0.791739        21.5443 
 103   0.0000       0.809020        22.0146 
 104   0.0000       0.821888        22.3647 
 105   0.0000       0.828285        22.5388 
 106   0.0000       0.832827        22.6624 
 107   0.0000       0.861504        23.4427 
 108   0.0000       0.875728        23.8298 
 109   0.0000       0.882010        24.0007 
 110   0.0000       0.888314        24.1723 
 111   0.0000       0.895267        24.3615 
 112   0.0000       0.901030        24.5183 
 113   0.0000       0.908815        24.7301 
 114   0.0000       0.921029        25.0625 
 115   0.0000       0.934855        25.4387 
 116   0.0000       0.944073        25.6895 
 117   0.0000       0.950819        25.8731 
 118   0.0000       0.961132        26.1537 
 119   0.0000       0.968738        26.3607 
 120   0.0000       0.978551        26.6277 
 121   0.0000       1.009503        27.4700 
 122   0.0000       1.025583        27.9075 
 123   0.0000       1.033168        28.1139 
 124   0.0000       1.039613        28.2893 
 125   0.0000       1.073879        29.2217 
 126   0.0000       1.099882        29.9293 
 127   0.0000       1.101355        29.9694 
 128   0.0000       1.142739        31.0955 
 129   0.0000       1.181600        32.1530 
 130   0.0000       1.235804        33.6279 
 131   0.0000       1.243567        33.8392 
 132   0.0000       1.262348        34.3502 
 133   0.0000       1.289371        35.0856 
 134   0.0000       1.342221        36.5237 
 135   0.0000       1.360649        37.0251 
 136   0.0000       1.388844        37.7924 
 137   0.0000       1.405768        38.2529 
 138   0.0000       1.456833        39.6424 
 139   0.0000       1.499718        40.8094 
 140   0.0000       1.505734        40.9731 
 141   0.0000       1.552886        42.2562 
 142   0.0000       1.637459        44.5575 
 143   0.0000       1.678271        45.6681 
 144   0.0000       1.707531        46.4643 
 145   0.0000       1.933317        52.6082 
 146   0.0000       2.019581        54.9556 
 147   0.0000       2.067885        56.2700 
 148   0.0000       2.101860        57.1945 

                    ********************************
                    * MULLIKEN POPULATION ANALYSIS *
                    ********************************

-----------------------
MULLIKEN ATOMIC CHARGES
-----------------------
   0 C :    0.293162
   1 C :   -0.288716
   2 C :   -0.299415
   3 C :   -0.002358
   4 O :   -0.507069
   5 H :    0.199922
   6 H :    0.150330
   7 H :    0.147017
   8 H :    0.140968
   9 H :    0.158207
  10 H :    0.150717
  11 H :    0.141840
  12 C :   -0.049375
  13 H :    0.146043
  14 H :    0.159044
  15 O :   -0.532036
  16 C :    0.048512
  17 C :    0.088382
  18 C :   -0.317552
  19 C :   -0.017797
  20 O :   -0.521083
  21 H :    0.161764
  22 H :    0.164171
  23 O :   -0.596079
  24 H :    0.158836
  25 H :    0.147600
  26 H :    0.146139
  27 H :    0.154922
  28 H :    0.373903
Sum of atomic charges:   -0.0000000

--------------------------------
MULLIKEN REDUCED ORBITAL CHARGES
--------------------------------
  0 C s       :     3.243011  s :     3.243011
      pz      :     0.807619  p :     2.463826
      px      :     0.666152
      py      :     0.990055
  1 C s       :     3.311429  s :     3.311429
      pz      :     0.983470  p :     2.977287
      px      :     1.044150
      py      :     0.949667
  2 C s       :     3.315397  s :     3.315397
      pz      :     0.909266  p :     2.984018
      px      :     1.082062
      py      :     0.992690
  3 C s       :     3.261011  s :     3.261011
      pz      :     0.941797  p :     2.741347
      px      :     1.056509
      py      :     0.743041
  4 O s       :     3.955043  s :     3.955043
      pz      :     1.322879  p :     4.552026
      px      :     1.714080
      py      :     1.515066
  5 H s       :     0.800078  s :     0.800078
  6 H s       :     0.849670  s :     0.849670
  7 H s       :     0.852983  s :     0.852983
  8 H s       :     0.859032  s :     0.859032
  9 H s       :     0.841793  s :     0.841793
 10 H s       :     0.849283  s :     0.849283
 11 H s       :     0.858160  s :     0.858160
 12 C s       :     3.300318  s :     3.300318
      pz      :     0.724451  p :     2.749058
      px      :     0.956801
      py      :     1.067807
 13 H s       :     0.853957  s :     0.853957
 14 H s       :     0.840956  s :     0.840956
 15 O s       :     3.950451  s :     3.950451
      pz      :     1.470328  p :     4.581585
      px      :     1.286902
      py      :     1.824355
 16 C s       :     3.271424  s :     3.271424
      pz      :     0.746762  p :     2.680065
      px      :     1.002507
      py      :     0.930795
 17 C s       :     3.279194  s :     3.279194
      pz      :     0.806035  p :     2.632424
      px      :     0.962514
      py      :     0.863875
 18 C s       :     3.326805  s :     3.326805
      pz      :     1.016110  p :     2.990747
      px      :     0.957171
      py      :     1.017466
 19 C s       :     3.266169  s :     3.266169
      pz      :     1.024280  p :     2.751628
      px      :     0.907635
      py      :     0.819713
 20 O s       :     3.950607  s :     3.950607
      pz      :     1.481749  p :     4.570476
      px      :     1.490918
      py      :     1.597810
 21 H s       :     0.838236  s :     0.838236
 22 H s       :     0.835829  s :     0.835829
 23 O s       :     3.951244  s :     3.951244
      pz      :     1.245129  p :     4.644836
      px      :     1.635352
      py      :     1.764355
 24 H s       :     0.841164  s :     0.841164
 25 H s       :     0.852400  s :     0.852400
 26 H s       :     0.853861  s :     0.853861
 27 H s       :     0.845078  s :     0.845078
 28 H s       :     0.626097  s :     0.626097


                     *******************************
                     * LOEWDIN POPULATION ANALYSIS *
                     *******************************

----------------------
LOEWDIN ATOMIC CHARGES
----------------------
   0 C :    0.174270
   1 C :   -0.233217
   2 C :   -0.217092
   3 C :   -0.028473
   4 O :   -0.295158
   5 H :    0.125222
   6 H :    0.116782
   7 H :    0.115148
   8 H :    0.113191
   9 H :    0.116706
  10 H :    0.107072
  11 H :    0.102058
  12 C :   -0.056365
  13 H :    0.109477
  14 H :    0.111836
  15 O :   -0.366034
  16 C :    0.004959
  17 C :    0.037540
  18 C :   -0.233698
  19 C :   -0.032609
  20 O :   -0.318676
  21 H :    0.113811
  22 H :    0.120819
  23 O :   -0.434444
  24 H :    0.124940
  25 H :    0.111374
  26 H :    0.103060
  27 H :    0.108145
  28 H :    0.299356

-------------------------------
LOEWDIN REDUCED ORBITAL CHARGES
-------------------------------
  0 C s       :     2.983085  s :     2.983085
      pz      :     0.929873  p :     2.842645
      px      :     0.821926
      py      :     1.090846
  1 C s       :     2.978887  s :     2.978887
      pz      :     1.076451  p :     3.254330
      px      :     1.110547
      py      :     1.067333
  2 C s       :     2.973019  s :     2.973019
      pz      :     1.032465  p :     3.244073
      px      :     1.131265
      py      :     1.080343
  3 C s       :     2.984252  s :     2.984252
      pz      :     1.039404  p :     3.044221
      px      :     1.118955
      py      :     0.885862
  4 O s       :     3.606429  s :     3.606429
      pz      :     1.381450  p :     4.688729
      px      :     1.745376
      py      :     1.561903
  5 H s       :     0.874778  s :     0.874778
  6 H s       :     0.883218  s :     0.883218
  7 H s       :     0.884852  s :     0.884852
  8 H s       :     0.886809  s :     0.886809
  9 H s       :     0.883294  s :     0.883294
 10 H s       :     0.892928  s :     0.892928
 11 H s       :     0.897942  s :     0.897942
 12 C s       :     3.005546  s :     3.005546
      pz      :     0.880309  p :     3.050819
      px      :     1.052982
      py      :     1.117528
 13 H s       :     0.890523  s :     0.890523
 14 H s       :     0.888164  s :     0.888164
 15 O s       :     3.656529  s :     3.656529
      pz      :     1.516560  p :     4.709505
      px      :     1.346356
      py      :     1.846590
 16 C s       :     2.965551  s :     2.965551
      pz      :     0.915841  p :     3.029491
      px      :     1.058961
      py      :     1.054689
 17 C s       :     2.972098  s :     2.972098
      pz      :     0.901858  p :     2.990362
      px      :     1.076964
      py      :     1.011540
 18 C s       :     2.980799  s :     2.980799
      pz      :     1.094912  p :     3.252899
      px      :     1.065759
      py      :     1.092228
 19 C s       :     2.981972  s :     2.981972
      pz      :     1.106437  p :     3.050637
      px      :     1.001881
      py      :     0.942318
 20 O s       :     3.602126  s :     3.602126
      pz      :     1.533471  p :     4.716549
      px      :     1.542687
      py      :     1.640391
 21 H s       :     0.886189  s :     0.886189
 22 H s       :     0.879181  s :     0.879181
 23 O s       :     3.687268  s :     3.687268
      pz      :     1.298711  p :     4.747176
      px      :     1.663947
      py      :     1.784518
 24 H s       :     0.875060  s :     0.875060
 25 H s       :     0.888626  s :     0.888626
 26 H s       :     0.896940  s :     0.896940
 27 H s       :     0.891855  s :     0.891855
 28 H s       :     0.700644  s :     0.700644


                      *****************************
                      * MAYER POPULATION ANALYSIS *
                      *****************************

  NA   - Mulliken gross atomic population
  ZA   - Total nuclear charge
  QA   - Mulliken gross atomic charge
  VA   - Mayer's total valence
  BVA  - Mayer's bonded valence
  FA   - Mayer's free valence

  ATOM       NA         ZA         QA         VA         BVA        FA
  0 C      5.7068     6.0000     0.2932     3.5724     3.5724    -0.0000
  1 C      6.2887     6.0000    -0.2887     3.7102     3.7102     0.0000
  2 C      6.2994     6.0000    -0.2994     3.7602     3.7602     0.0000
  3 C      6.0024     6.0000    -0.0024     3.6590     3.6590    -0.0000
  4 O      8.5071     8.0000    -0.5071     1.8252     1.8252     0.0000
  5 H      0.8001     1.0000     0.1999     0.9308     0.9308     0.0000
  6 H      0.8497     1.0000     0.1503     0.9317     0.9317    -0.0000
  7 H      0.8530     1.0000     0.1470     0.9392     0.9392    -0.0000
  8 H      0.8590     1.0000     0.1410     0.9369     0.9369    -0.0000
  9 H      0.8418     1.0000     0.1582     0.9347     0.9347    -0.0000
 10 H      0.8493     1.0000     0.1507     0.9256     0.9256    -0.0000
 11 H      0.8582     1.0000     0.1418     0.9284     0.9284    -0.0000
 12 C      6.0494     6.0000    -0.0494     3.6470     3.6470     0.0000
 13 H      0.8540     1.0000     0.1460     0.9366     0.9366    -0.0000
 14 H      0.8410     1.0000     0.1590     0.9275     0.9275    -0.0000
 15 O      8.5320     8.0000    -0.5320     1.7684     1.7684    -0.0000
 16 C      5.9515     6.0000     0.0485     3.5589     3.5589     0.0000
 17 C      5.9116     6.0000     0.0884     3.6536     3.6536    -0.0000
 18 C      6.3176     6.0000    -0.3176     3.7259     3.7259     0.0000
 19 C      6.0178     6.0000    -0.0178     3.6428     3.6428    -0.0000
 20 O      8.5211     8.0000    -0.5211     1.7606     1.7606    -0.0000
 21 H      0.8382     1.0000     0.1618     0.9365     0.9365     0.0000
 22 H      0.8358     1.0000     0.1642     0.9280     0.9280    -0.0000
 23 O      8.5961     8.0000    -0.5961     1.7824     1.7824    -0.0000
 24 H      0.8412     1.0000     0.1588     0.9380     0.9380     0.0000
 25 H      0.8524     1.0000     0.1476     0.9413     0.9413     0.0000
 26 H      0.8539     1.0000     0.1461     0.9254     0.9254    -0.0000
 27 H      0.8451     1.0000     0.1549     0.9265     0.9265    -0.0000
 28 H      0.6261     1.0000     0.3739     0.8465     0.8465    -0.0000

  Mayer bond orders larger than 0.100000
B(  0-C ,  1-C ) :   0.9167 B(  0-C ,  4-O ) :   0.9261 B(  0-C ,  5-H ) :   0.8841 
B(  0-C , 15-O ) :   0.7817 B(  1-C ,  2-C ) :   0.9495 B(  1-C ,  6-H ) :   0.9347 
B(  1-C ,  7-H ) :   0.9285 B(  2-C ,  3-C ) :   0.9557 B(  2-C ,  8-H ) :   0.9449 
B(  2-C ,  9-H ) :   0.9458 B(  3-C ,  4-O ) :   0.8385 B(  3-C , 10-H ) :   0.9339 
B(  3-C , 11-H ) :   0.9386 B( 12-C , 13-H ) :   0.9290 B( 12-C , 14-H ) :   0.9218 
B( 12-C , 15-O ) :   0.8423 B( 12-C , 16-C ) :   0.8862 B( 16-C , 17-C ) :   0.8855 
B( 16-C , 20-O ) :   0.8398 B( 16-C , 21-H ) :   0.9207 B( 17-C , 18-C ) :   0.9231 
B( 17-C , 22-H ) :   0.9325 B( 17-C , 23-O ) :   0.9088 B( 18-C , 19-C ) :   0.9311 
B( 18-C , 24-H ) :   0.9431 B( 18-C , 25-H ) :   0.9409 B( 19-C , 20-O ) :   0.8370 
B( 19-C , 26-H ) :   0.9328 B( 19-C , 27-H ) :   0.9373 B( 23-O , 28-H ) :   0.7549 


-------
TIMINGS
-------

Total SCF time: 0 days 0 hours 5 min 38 sec 

Total time                  ....     338.740 sec
Sum of individual times     ....     283.095 sec  ( 83.6%)

Fock matrix formation       ....     243.941 sec  ( 72.0%)
  XC integration            ....     113.194 sec  ( 46.4% of F)
    Basis function eval.    ....       3.076 sec  (  2.7% of XC)
    Density eval.           ....       1.877 sec  (  1.7% of XC)
    XC-Functional eval.     ....       1.316 sec  (  1.2% of XC)
    XC-Potential eval.      ....       1.532 sec  (  1.4% of XC)
Diagonalization             ....      16.593 sec  (  4.9%)
Density matrix formation    ....       0.010 sec  (  0.0%)
Population analysis         ....       5.028 sec  (  1.5%)
Initial guess               ....       2.070 sec  (  0.6%)
Orbital Transformation      ....       0.000 sec  (  0.0%)
Orbital Orthonormalization  ....       0.000 sec  (  0.0%)
DIIS solution               ....       4.078 sec  (  1.2%)
SOSCF solution              ....       2.546 sec  (  0.8%)
Grid generation             ....       8.830 sec  (  2.6%)

-------------------------   --------------------
FINAL SINGLE POINT ENERGY      -652.823990373839
-------------------------   --------------------

------------------------------------------------------------------------------
                         ORCA SCF GRADIENT CALCULATION
------------------------------------------------------------------------------

Gradient of the Kohn-Sham DFT energy:
Kohn-Sham wavefunction type      ... RKS
Hartree-Fock exchange scaling    ...    0.200
Number of operators              ...    1
Number of atoms                  ...   29
Basis set dimensions             ...  149
Integral neglect threshold       ... 2.5e-11
Integral primitive cutoff        ... 2.5e-12

Nuclear repulsion gradient       ... done
One Electron Gradient            ... done
Pre-screening matrix             ... done
Starting the two electron gradient:
Two electron gradient done
Exchange-correlation gradient    ... done

------------------
CARTESIAN GRADIENT
------------------

   1   C   :   -0.004913973   -0.002496604   -0.003237263
   2   C   :    0.008137805   -0.004954236   -0.007893205
   3   C   :   -0.000995953   -0.001356723   -0.001931791
   4   C   :    0.001095295   -0.005791585   -0.003881348
   5   O   :    0.020900913   -0.009062024    0.021053262
   6   H   :    0.006231777   -0.000149586   -0.008823525
   7   H   :    0.000103792    0.002399507    0.000304234
   8   H   :   -0.001994764   -0.000270957   -0.002046348
   9   H   :   -0.000652454    0.000492244   -0.000073551
  10   H   :   -0.000563342    0.001626041    0.000647922
  11   H   :   -0.000498286    0.000758200    0.001302569
  12   H   :   -0.000356672    0.001218711    0.000805815
  13   C   :   -0.023706543    0.001132138   -0.003785493
  14   H   :   -0.003971105    0.000283068   -0.011093304
  15   H   :   -0.000957802    0.001275021   -0.005552845
  16   O   :   -0.005468025   -0.005659944    0.019828727
  17   C   :    0.000216899   -0.003442364   -0.011370439
  18   C   :    0.008751688    0.014190702   -0.033499306
  19   C   :   -0.000345837    0.000100549    0.005434948
  20   C   :    0.003959514    0.005441386    0.000536996
  21   O   :   -0.001671488   -0.001726868   -0.007116346
  22   H   :    0.001442563    0.002505127    0.005208441
  23   H   :   -0.001914283    0.005513760   -0.009426531
  24   O   :    0.048359706   -0.015307157    0.006866359
  25   H   :   -0.000841523   -0.000826221   -0.001108316
  26   H   :   -0.001550745    0.001537402    0.000075117
  27   H   :   -0.000274016   -0.000157161    0.000695081
  28   H   :   -0.000233247   -0.000256018    0.000554983
  29   H   :   -0.048289891    0.012983588    0.047525154

Difference to translation invariance:
           :   -0.0000000000   -0.0000000001    0.0000000000

Norm of the cartesian gradient     ...    0.1085184245
RMS gradient                       ...    0.0116343963
MAX gradient                       ...    0.0483597064

-------
TIMINGS
-------

Total SCF gradient time            ...       29.855 sec

One electron gradient       ....       0.302 sec  (  1.0%)
Prescreening matrices       ....       0.049 sec  (  0.2%)
Two electron gradient       ....      18.504 sec  ( 62.0%)
XC gradient                 ....       9.138 sec  ( 30.6%)
------------------------------------------------------------------------------
                         ORCA GEOMETRY RELAXATION STEP
------------------------------------------------------------------------------

Reading the OPT-File                    .... done
Getting information on internals        .... done
Copying old internal coords+grads       .... done
Making the new internal coordinates     .... (new redundants).... done
Validating the new internal coordinates .... (new redundants).... done
Calculating the B-matrix                .... done
Calculating the G,G- and P matrices     .... done
Transforming gradient to internals      .... done
Projecting the internal gradient        .... done
Number of atoms                         ....  29
Number of internal coordinates          .... 172
Current Energy                          ....  -652.823990374 Eh
Current gradient norm                   ....     0.108518424 Eh/bohr
Maximum allowed component of the step   ....  0.300
Current trust radius                    ....  0.300
Evaluating the initial hessian          ....  (Almloef) done
Projecting the Hessian                  .... done
Forming the augmented Hessian           .... done
Diagonalizing the augmented Hessian     .... done
Last element of RFO vector              ....  0.912387319
Lowest eigenvalues of augmented Hessian:
 -0.053096793  0.008648316  0.033034427  0.033267943  0.036570547
Length of the computed step             ....  0.448633987
Warning: the length of the step is outside the trust region - taking restricted step instead
The input lambda is                     ....    -0.053097
   iter:   1  x=   -0.103446  g=    2.210015 f(x)=     0.111272
   iter:   2  x=   -0.149201  g=    0.904696 f(x)=     0.041394
   iter:   3  x=   -0.166138  g=    0.547478 f(x)=     0.009273
   iter:   4  x=   -0.167603  g=    0.469363 f(x)=     0.000688
   iter:   5  x=   -0.167613  g=    0.463423 f(x)=     0.000004
   iter:   6  x=   -0.167613  g=    0.463385 f(x)=     0.000000
   iter:   7  x=   -0.167613  g=    0.463385 f(x)=     0.000000
The output lambda is                    ....    -0.167613 (7 iterations)
The final length of the internal step   ....  0.300000000
Converting the step to cartesian space:
 Initial RMS(Int)=    0.0228747855
Transforming coordinates:
 Iter   0:  RMS(Cart)=    0.2125794559 RMS(Int)=    0.8287397069
 Iter   1:  RMS(Cart)=    0.0147250693 RMS(Int)=    0.4787331157
 Iter   2:  RMS(Cart)=    0.0019907600 RMS(Int)=    0.0003843753
 Iter   3:  RMS(Cart)=    0.0002616180 RMS(Int)=    0.0001060174
[...]
  29   2.0000      -0.487274       -13.2594 
  30   2.0000      -0.469269       -12.7695 
  31   2.0000      -0.459381       -12.5004 
  32   2.0000      -0.447775       -12.1846 
  33   2.0000      -0.436033       -11.8650 
  34   2.0000      -0.429399       -11.6845 
  35   2.0000      -0.416894       -11.3443 
  36   2.0000      -0.411064       -11.1856 
  37   2.0000      -0.401643       -10.9293 
  38   2.0000      -0.380700       -10.3594 
  39   2.0000      -0.374537       -10.1917 
  40   2.0000      -0.362646        -9.8681 
  41   2.0000      -0.358869        -9.7653 
  42   2.0000      -0.353880        -9.6296 
  43   2.0000      -0.340891        -9.2761 
  44   2.0000      -0.317794        -8.6476 
  45   2.0000      -0.314259        -8.5514 
  46   2.0000      -0.306176        -8.3315 
  47   2.0000      -0.267987        -7.2923 
  48   2.0000      -0.259521        -7.0619 
  49   2.0000      -0.257204        -6.9989 
  50   2.0000      -0.247036        -6.7222 
  51   0.0000       0.056262         1.5310 
  52   0.0000       0.069638         1.8949 
  53   0.0000       0.084034         2.2867 
  54   0.0000       0.096330         2.6213 
  55   0.0000       0.107047         2.9129 
  56   0.0000       0.112555         3.0628 
  57   0.0000       0.115773         3.1504 
  58   0.0000       0.123381         3.3574 
  59   0.0000       0.140788         3.8310 
  60   0.0000       0.143852         3.9144 
  61   0.0000       0.150763         4.1025 
  62   0.0000       0.151979         4.1356 
  63   0.0000       0.157565         4.2876 
  64   0.0000       0.162887         4.4324 
  65   0.0000       0.171745         4.6734 
  66   0.0000       0.182537         4.9671 
  67   0.0000       0.184678         5.0253 
  68   0.0000       0.192322         5.2334 
  69   0.0000       0.202588         5.5127 
  70   0.0000       0.212980         5.7955 
  71   0.0000       0.226766         6.1706 
  72   0.0000       0.230124         6.2620 
  73   0.0000       0.246416         6.7053 
  74   0.0000       0.251856         6.8533 
  75   0.0000       0.256210         6.9718 
  76   0.0000       0.266435         7.2501 
  77   0.0000       0.274857         7.4792 
  78   0.0000       0.286264         7.7896 
  79   0.0000       0.300106         8.1663 
  80   0.0000       0.322869         8.7857 
  81   0.0000       0.527135        14.3441 
  82   0.0000       0.532427        14.4881 
  83   0.0000       0.548764        14.9326 
  84   0.0000       0.551267        15.0007 
  85   0.0000       0.553325        15.0567 
  86   0.0000       0.560657        15.2562 
  87   0.0000       0.569148        15.4873 
  88   0.0000       0.577918        15.7260 
  89   0.0000       0.578167        15.7327 
  90   0.0000       0.596917        16.2429 
  91   0.0000       0.603208        16.4141 
  92   0.0000       0.628901        17.1133 
  93   0.0000       0.635334        17.2883 
  94   0.0000       0.640863        17.4388 
  95   0.0000       0.652090        17.7443 
  96   0.0000       0.660186        17.9646 
  97   0.0000       0.665095        18.0982 
  98   0.0000       0.696848        18.9622 
  99   0.0000       0.710988        19.3470 
 100   0.0000       0.732609        19.9353 
 101   0.0000       0.760099        20.6833 
 102   0.0000       0.788533        21.4571 
 103   0.0000       0.817303        22.2399 
 104   0.0000       0.826111        22.4796 
 105   0.0000       0.833629        22.6842 
 106   0.0000       0.843441        22.9512 
 107   0.0000       0.867593        23.6084 
 108   0.0000       0.877109        23.8674 
 109   0.0000       0.881520        23.9874 
 110   0.0000       0.888876        24.1876 
 111   0.0000       0.896835        24.4041 
 112   0.0000       0.902398        24.5555 
 113   0.0000       0.909354        24.7448 
 114   0.0000       0.923438        25.1280 
 115   0.0000       0.938512        25.5382 
 116   0.0000       0.945587        25.7307 
 117   0.0000       0.954605        25.9761 
 118   0.0000       0.959199        26.1011 
 119   0.0000       0.970028        26.3958 
 120   0.0000       0.974398        26.5147 
 121   0.0000       0.992044        26.9949 
 122   0.0000       1.008237        27.4355 
 123   0.0000       1.029027        28.0013 
 124   0.0000       1.032743        28.1024 
 125   0.0000       1.081159        29.4198 
 126   0.0000       1.084951        29.5230 
 127   0.0000       1.105580        30.0844 
 128   0.0000       1.146474        31.1972 
 129   0.0000       1.172370        31.9018 
 130   0.0000       1.215440        33.0738 
 131   0.0000       1.248078        33.9619 
 132   0.0000       1.253729        34.1157 
 133   0.0000       1.283702        34.9313 
 134   0.0000       1.334797        36.3217 
 135   0.0000       1.352461        36.8023 
 136   0.0000       1.399670        38.0870 
 137   0.0000       1.424252        38.7559 
 138   0.0000       1.468851        39.9695 
 139   0.0000       1.503814        40.9208 
 140   0.0000       1.531712        41.6800 
 141   0.0000       1.553676        42.2777 
 142   0.0000       1.604080        43.6492 
 143   0.0000       1.690946        46.0130 
 144   0.0000       1.715762        46.6883 
 145   0.0000       1.928067        52.4654 
 146   0.0000       2.025132        55.1066 
 147   0.0000       2.036407        55.4135 
 148   0.0000       2.116972        57.6057 

                    ********************************
                    * MULLIKEN POPULATION ANALYSIS *
                    ********************************

-----------------------
MULLIKEN ATOMIC CHARGES
-----------------------
   0 C :    0.268411
   1 C :   -0.282466
   2 C :   -0.296887
   3 C :   -0.001648
   4 O :   -0.504032
   5 H :    0.181773
   6 H :    0.150408
   7 H :    0.143989
   8 H :    0.142198
   9 H :    0.159117
  10 H :    0.153857
  11 H :    0.143343
  12 C :   -0.027190
  13 H :    0.150451
  14 H :    0.155128
  15 O :   -0.535859
  16 C :    0.046453
  17 C :    0.102604
  18 C :   -0.312402
  19 C :   -0.019742
  20 O :   -0.519806
  21 H :    0.155993
  22 H :    0.164069
  23 O :   -0.604044
  24 H :    0.157390
  25 H :    0.145971
  26 H :    0.145646
  27 H :    0.155899
  28 H :    0.381378
Sum of atomic charges:    0.0000000

--------------------------------
MULLIKEN REDUCED ORBITAL CHARGES
--------------------------------
  0 C s       :     3.219745  s :     3.219745
      pz      :     0.784368  p :     2.511844
      px      :     0.691090
      py      :     1.036387
  1 C s       :     3.308723  s :     3.308723
      pz      :     0.991495  p :     2.973742
      px      :     1.033104
      py      :     0.949144
  2 C s       :     3.314735  s :     3.314735
      pz      :     0.906200  p :     2.982152
      px      :     1.081276
      py      :     0.994676
  3 C s       :     3.262994  s :     3.262994
      pz      :     0.933422  p :     2.738654
      px      :     1.069929
      py      :     0.735304
  4 O s       :     3.940644  s :     3.940644
      pz      :     1.253829  p :     4.563388
      px      :     1.794731
      py      :     1.514827
  5 H s       :     0.818227  s :     0.818227
  6 H s       :     0.849592  s :     0.849592
  7 H s       :     0.856011  s :     0.856011
  8 H s       :     0.857802  s :     0.857802
  9 H s       :     0.840883  s :     0.840883
 10 H s       :     0.846143  s :     0.846143
 11 H s       :     0.856657  s :     0.856657
 12 C s       :     3.265964  s :     3.265964
      pz      :     0.733012  p :     2.761226
      px      :     0.956950
      py      :     1.071263
 13 H s       :     0.849549  s :     0.849549
 14 H s       :     0.844872  s :     0.844872
 15 O s       :     3.924288  s :     3.924288
      pz      :     1.485986  p :     4.611571
      px      :     1.302069
      py      :     1.823516
 16 C s       :     3.271941  s :     3.271941
      pz      :     0.790058  p :     2.681606
      px      :     0.964904
      py      :     0.926645
 17 C s       :     3.242706  s :     3.242706
      pz      :     0.861702  p :     2.654690
      px      :     0.944068
      py      :     0.848921
 18 C s       :     3.324462  s :     3.324462
      pz      :     1.034671  p :     2.987940
      px      :     0.949335
      py      :     1.003934
 19 C s       :     3.268660  s :     3.268660
      pz      :     1.044095  p :     2.751082
      px      :     0.881884
      py      :     0.825104
 20 O s       :     3.949076  s :     3.949076
      pz      :     1.568817  p :     4.570731
      px      :     1.407687
      py      :     1.594226
 21 H s       :     0.844007  s :     0.844007
 22 H s       :     0.835931  s :     0.835931
 23 O s       :     3.922055  s :     3.922055
      pz      :     1.229980  p :     4.681989
      px      :     1.737816
      py      :     1.714193
 24 H s       :     0.842610  s :     0.842610
 25 H s       :     0.854029  s :     0.854029
 26 H s       :     0.854354  s :     0.854354
 27 H s       :     0.844101  s :     0.844101
 28 H s       :     0.618622  s :     0.618622


                     *******************************
                     * LOEWDIN POPULATION ANALYSIS *
                     *******************************

----------------------
LOEWDIN ATOMIC CHARGES
----------------------
   0 C :    0.163494
   1 C :   -0.231766
   2 C :   -0.215949
   3 C :   -0.025307
   4 O :   -0.300675
   5 H :    0.113404
   6 H :    0.117049
   7 H :    0.113189
   8 H :    0.114398
   9 H :    0.117169
  10 H :    0.109234
  11 H :    0.103212
  12 C :   -0.057291
  13 H :    0.110285
  14 H :    0.107106
  15 O :   -0.348609
  16 C :    0.003360
  17 C :    0.035002
  18 C :   -0.238278
  19 C :   -0.031780
  20 O :   -0.319011
  21 H :    0.111378
  22 H :    0.117039
  23 O :   -0.403244
  24 H :    0.124240
  25 H :    0.110780
  26 H :    0.103771
  27 H :    0.108816
  28 H :    0.288982

-------------------------------
LOEWDIN REDUCED ORBITAL CHARGES
-------------------------------
  0 C s       :     2.960688  s :     2.960688
      pz      :     0.920700  p :     2.875818
      px      :     0.852139
      py      :     1.102980
  1 C s       :     2.979268  s :     2.979268
      pz      :     1.078339  p :     3.252498
      px      :     1.109021
      py      :     1.065138
  2 C s       :     2.971008  s :     2.971008
      pz      :     1.030844  p :     3.244940
      px      :     1.131705
      py      :     1.082391
  3 C s       :     2.984288  s :     2.984288
      pz      :     1.036870  p :     3.041020
      px      :     1.127341
      py      :     0.876808
  4 O s       :     3.591829  s :     3.591829
      pz      :     1.327639  p :     4.708846
      px      :     1.819277
      py      :     1.561930
  5 H s       :     0.886596  s :     0.886596
  6 H s       :     0.882951  s :     0.882951
  7 H s       :     0.886811  s :     0.886811
  8 H s       :     0.885602  s :     0.885602
  9 H s       :     0.882831  s :     0.882831
 10 H s       :     0.890766  s :     0.890766
 11 H s       :     0.896788  s :     0.896788
 12 C s       :     2.982918  s :     2.982918
      pz      :     0.906508  p :     3.074373
      px      :     1.046705
      py      :     1.121160
 13 H s       :     0.889715  s :     0.889715
 14 H s       :     0.892894  s :     0.892894
 15 O s       :     3.593861  s :     3.593861
      pz      :     1.532078  p :     4.754747
      px      :     1.370343
      py      :     1.852326
 16 C s       :     2.966049  s :     2.966049
      pz      :     0.948583  p :     3.030592
      px      :     1.031937
      py      :     1.050071
 17 C s       :     2.952534  s :     2.952534
      pz      :     0.958282  p :     3.012464
      px      :     1.054116
      py      :     1.000066
 18 C s       :     2.983462  s :     2.983462
      pz      :     1.105766  p :     3.254816
      px      :     1.061754
      py      :     1.087296
 19 C s       :     2.982565  s :     2.982565
      pz      :     1.118680  p :     3.049215
      px      :     0.983055
      py      :     0.947480
 20 O s       :     3.602448  s :     3.602448
      pz      :     1.613962  p :     4.716563
      px      :     1.465655
      py      :     1.636946
 21 H s       :     0.888622  s :     0.888622
 22 H s       :     0.882961  s :     0.882961
 23 O s       :     3.605005  s :     3.605005
      pz      :     1.284915  p :     4.798239
      px      :     1.770452
      py      :     1.742872
 24 H s       :     0.875760  s :     0.875760
 25 H s       :     0.889220  s :     0.889220
 26 H s       :     0.896229  s :     0.896229
 27 H s       :     0.891184  s :     0.891184
 28 H s       :     0.711018  s :     0.711018


                      *****************************
                      * MAYER POPULATION ANALYSIS *
                      *****************************

  NA   - Mulliken gross atomic population
  ZA   - Total nuclear charge
  QA   - Mulliken gross atomic charge
  VA   - Mayer's total valence
  BVA  - Mayer's bonded valence
  FA   - Mayer's free valence

  ATOM       NA         ZA         QA         VA         BVA        FA
  0 C      5.7316     6.0000     0.2684     3.6096     3.6096     0.0000
  1 C      6.2825     6.0000    -0.2825     3.7161     3.7161    -0.0000
  2 C      6.2969     6.0000    -0.2969     3.7631     3.7631     0.0000
  3 C      6.0016     6.0000    -0.0016     3.6586     3.6586    -0.0000
  4 O      8.5040     8.0000    -0.5040     1.7994     1.7994     0.0000
  5 H      0.8182     1.0000     0.1818     0.9434     0.9434    -0.0000
  6 H      0.8496     1.0000     0.1504     0.9324     0.9324     0.0000
  7 H      0.8560     1.0000     0.1440     0.9403     0.9403    -0.0000
  8 H      0.8578     1.0000     0.1422     0.9369     0.9369     0.0000
  9 H      0.8409     1.0000     0.1591     0.9348     0.9348     0.0000
 10 H      0.8461     1.0000     0.1539     0.9261     0.9261    -0.0000
 11 H      0.8567     1.0000     0.1433     0.9289     0.9289    -0.0000
 12 C      6.0272     6.0000    -0.0272     3.6439     3.6439    -0.0000
 13 H      0.8495     1.0000     0.1505     0.9351     0.9351     0.0000
 14 H      0.8449     1.0000     0.1551     0.9265     0.9265     0.0000
 15 O      8.5359     8.0000    -0.5359     1.7188     1.7188    -0.0000
 16 C      5.9535     6.0000     0.0465     3.5591     3.5591    -0.0000
 17 C      5.8974     6.0000     0.1026     3.6538     3.6538    -0.0000
 18 C      6.3124     6.0000    -0.3124     3.7202     3.7202     0.0000
 19 C      6.0197     6.0000    -0.0197     3.6505     3.6505    -0.0000
 20 O      8.5198     8.0000    -0.5198     1.7616     1.7616     0.0000
 21 H      0.8440     1.0000     0.1560     0.9347     0.9347    -0.0000
 22 H      0.8359     1.0000     0.1641     0.9250     0.9250     0.0000
 23 O      8.6040     8.0000    -0.6040     1.7773     1.7773    -0.0000
 24 H      0.8426     1.0000     0.1574     0.9379     0.9379     0.0000
 25 H      0.8540     1.0000     0.1460     0.9403     0.9403     0.0000
 26 H      0.8544     1.0000     0.1456     0.9257     0.9257    -0.0000
 27 H      0.8441     1.0000     0.1559     0.9262     0.9262     0.0000
 28 H      0.6186     1.0000     0.3814     0.8321     0.8321     0.0000

  Mayer bond orders larger than 0.100000
B(  0-C ,  1-C ) :   0.9304 B(  0-C ,  4-O ) :   0.9321 B(  0-C ,  5-H ) :   0.8874 
B(  0-C , 15-O ) :   0.7974 B(  1-C ,  2-C ) :   0.9486 B(  1-C ,  6-H ) :   0.9352 
B(  1-C ,  7-H ) :   0.9316 B(  2-C ,  3-C ) :   0.9559 B(  2-C ,  8-H ) :   0.9450 
B(  2-C ,  9-H ) :   0.9454 B(  3-C ,  4-O ) :   0.8334 B(  3-C , 10-H ) :   0.9351 
B(  3-C , 11-H ) :   0.9398 B( 12-C , 13-H ) :   0.9336 B( 12-C , 14-H ) :   0.9201 
B( 12-C , 15-O ) :   0.8326 B( 12-C , 16-C ) :   0.8881 B( 16-C , 17-C ) :   0.8867 
B( 16-C , 20-O ) :   0.8399 B( 16-C , 21-H ) :   0.9256 B( 17-C , 18-C ) :   0.9133 
B( 17-C , 22-H ) :   0.9336 B( 17-C , 23-O ) :   0.9071 B( 18-C , 19-C ) :   0.9388 
B( 18-C , 24-H ) :   0.9431 B( 18-C , 25-H ) :   0.9420 B( 19-C , 20-O ) :   0.8325 
B( 19-C , 26-H ) :   0.9333 B( 19-C , 27-H ) :   0.9374 B( 23-O , 28-H ) :   0.7636 


-------
TIMINGS
-------

Total SCF time: 0 days 0 hours 2 min 13 sec 

Total time                  ....     133.775 sec
Sum of individual times     ....     109.462 sec  ( 81.8%)

Fock matrix formation       ....      98.434 sec  ( 73.6%)
  XC integration            ....      32.977 sec  ( 33.5% of F)
    Basis function eval.    ....       1.690 sec  (  5.1% of XC)
    Density eval.           ....       0.674 sec  (  2.0% of XC)
    XC-Functional eval.     ....       0.793 sec  (  2.4% of XC)
    XC-Potential eval.      ....       0.770 sec  (  2.3% of XC)
Diagonalization             ....       0.618 sec  (  0.5%)
Density matrix formation    ....       0.005 sec  (  0.0%)
Population analysis         ....       3.142 sec  (  2.3%)
Initial guess               ....       0.057 sec  (  0.0%)
Orbital Transformation      ....       0.000 sec  (  0.0%)
Orbital Orthonormalization  ....       0.005 sec  (  0.0%)
DIIS solution               ....       0.002 sec  (  0.0%)
SOSCF solution              ....       0.101 sec  (  0.1%)
Grid generation             ....       7.102 sec  (  5.3%)

-------------------------   --------------------
FINAL SINGLE POINT ENERGY      -652.855895558251
-------------------------   --------------------

                                *** OPTIMIZATION RUN DONE ***

                            ***************************************
                            *     ORCA property calculations      *
                            ***************************************

                                    ---------------------
                                    Active property flags
                                    ---------------------
   (+) Dipole Moment


------------------------------------------------------------------------------
                       ORCA ELECTRIC PROPERTIES CALCULATION
------------------------------------------------------------------------------

Dipole Moment Calculation                       ... on
Quadrupole Moment Calculation                   ... off
Polarizability Calculation                      ... off
GBWName                                         ... project_8051/ensemble_180_30.gbw
Electron density file                           ... project_8051/ensemble_180_30.scfp
The origin for moment calculation is the CENTER OF MASS  = (-41.806703, 49.452943 85.371611)

-------------
DIPOLE MOMENT
-------------
                                X             Y             Z
Electronic contribution:     -0.00622      -2.76728       0.20766
Nuclear contribution   :     -0.25110       3.40227      -0.61903
                        -----------------------------------------
Total Dipole Moment    :     -0.25731       0.63499      -0.41137
                        -----------------------------------------
Magnitude (a.u.)       :      0.79916
Magnitude (Debye)      :      2.03129



--------------------
Rotational spectrum 
--------------------
 
Rotational constants in cm-1:     0.061900     0.014299     0.012917 
Rotational constants in MHz :  1855.725107   428.660054   387.241077 

 Dipole components along the rotational axes: 
x,y,z [a.u.] :    -0.275621     0.749909     0.017820 
x,y,z [Debye]:    -0.700574     1.906118     0.045295 

 

Timings for individual modules:

Sum of individual times         ...     2286.941 sec (=  38.116 min)
GTO integral calculation        ...       58.609 sec (=   0.977 min)   2.6 %
SCF iterations                  ...     1943.088 sec (=  32.385 min)  85.0 %
SCF Gradient evaluation         ...      251.924 sec (=   4.199 min)  11.0 %
Geometry relaxation             ...       33.320 sec (=   0.555 min)   1.5 %
                             ****ORCA TERMINATED NORMALLY****
TOTAL RUN TIME: 0 days 0 hours 42 minutes 50 seconds 351 msec
