
                                 *****************
                                 * O   R   C   A *
                                 *****************

           --- An Ab Initio, DFT and Semiempirical electronic structure package ---

                  #######################################################
                  #                        -***-                        #
                  #          Department of theory and spectroscopy      #
                  #               Directorship: Frank Neese             #
                  #        Max Planck Institute fuer Kohlenforschung    #
                  #                Kaiser Wilhelm Platz 1               #
                  #                 D-45470 Muelheim/Ruhr               #
                  #                      Germany                        #
                  #                                                     #
                  #                  All rights reserved                #
                  #                        -***-                        #
                  #######################################################


                         Program Version 4.2.0 -  RELEASE  -


 With contributions from (in alphabetic order):
   Daniel Aravena         : Magnetic Suceptibility
   Michael Atanasov       : Ab Initio Ligand Field Theory (pilot matlab implementation)
   Alexander A. Auer      : GIAO ZORA, VPT2
   Ute Becker             : Parallelization
   Giovanni Bistoni       : ED, misc. LED, open-shell LED, HFLED
   Martin Brehm           : Molecular dynamics
   Dmytro Bykov           : SCF Hessian
   Vijay G. Chilkuri      : MRCI spin determinant printing, contributions to CSF-ICE
   Dipayan Datta          : RHF DLPNO-CCSD density
   Achintya Kumar Dutta   : EOM-CC, STEOM-CC
   Dmitry Ganyushin       : Spin-Orbit,Spin-Spin,Magnetic field MRCI
   Miquel Garcia          : C-PCM Hessian, Gaussian charge scheme
   Yang Guo               : DLPNO-NEVPT2, CIM, IAO-localization
   Andreas Hansen         : Spin unrestricted coupled pair/coupled cluster methods
   Benjamin Helmich-Paris : CASSCF linear response (MC-RPA)
   Lee Huntington         : MR-EOM, pCC
   Robert Izsak           : Overlap fitted RIJCOSX, COSX-SCS-MP3, EOM
   Christian Kollmar      : KDIIS, OOCD, Brueckner-CCSD(T), CCSD density
   Simone Kossmann        : Meta GGA functionals, TD-DFT gradient, OOMP2, MP2 Hessian
   Martin Krupicka        : AUTO-CI
   Lucas Lang             : DCDCAS
   Dagmar Lenk            : GEPOL surface, SMD
   Dimitrios Liakos       : Extrapolation schemes; Compound Job, initial MDCI parallelization
   Dimitrios Manganas     : Further ROCIS development; embedding schemes
   Dimitrios Pantazis     : SARC Basis sets
   Taras Petrenko         : DFT Hessian,TD-DFT gradient, ASA, ECA, R-Raman, ABS, FL, XAS/XES, NRVS
   Peter Pinski           : DLPNO-MP2, DLPNO-MP2 Gradient
   Christoph Reimann      : Effective Core Potentials
   Marius Retegan         : Local ZFS, SOC
   Christoph Riplinger    : Optimizer, TS searches, QM/MM, DLPNO-CCSD(T), (RO)-DLPNO pert. Triples
   Tobias Risthaus        : Range-separated hybrids, TD-DFT gradient, RPA, STAB
   Michael Roemelt        : Original ROCIS implementation
   Masaaki Saitow         : Open-shell DLPNO-CCSD energy and density
   Barbara Sandhoefer     : DKH picture change effects
   Avijit Sen             : IP-ROCIS
   Kantharuban Sivalingam : CASSCF convergence, NEVPT2, FIC-MRCI
   Bernardo de Souza      : ESD, SOC TD-DFT
   Georgi Stoychev        : AutoAux, RI-MP2 NMR
   Willem Van den Heuvel  : Paramagnetic NMR
   Boris Wezisla          : Elementary symmetry handling
   Frank Wennmohs         : Technical directorship


 We gratefully acknowledge several colleagues who have allowed us to
 interface, adapt or use parts of their codes:
   Stefan Grimme, W. Hujo, H. Kruse,             : VdW corrections, initial TS optimization,
                  C. Bannwarth                     DFT functionals, gCP, sTDA/sTD-DF
   Ed Valeev, F. Pavosevic, A. Kumar             : LibInt (2-el integral package), F12 methods
   Garnet Chan, S. Sharma, J. Yang, R. Olivares  : DMRG
   Ulf Ekstrom                                   : XCFun DFT Library
   Mihaly Kallay                                 : mrcc  (arbitrary order and MRCC methods)
   Andreas Klamt, Michael Diedenhofen            : otool_cosmo (COSMO solvation model)
   Jiri Pittner, Ondrej Demel                    : Mk-CCSD
   Frank Weinhold                                : gennbo (NPA and NBO analysis)
   Christopher J. Cramer and Donald G. Truhlar   : smd solvation model
   Lars Goerigk                                  : TD-DFT with DH, B97 family of functionals
   V. Asgeirsson, H. Jonsson                     : NEB implementation
   FAccTs GmbH                                   : IRC, NEB, NEB-TS, Multilevel, MM, QM/MM, CI optimization
   S Lehtola, MJT Oliveira, MAL Marques          : LibXC Library


 Your calculation uses the libint2 library for the computation of 2-el integrals
 For citations please refer to: http://libint.valeyev.net

 Your ORCA version has been built with support for libXC version: 4.2.3
 For citations please refer to: https://tddft.org/programs/libxc/

 This ORCA versions uses:
   CBLAS   interface :  Fast vector & matrix operations
   LAPACKE interface :  Fast linear algebra routines
   SCALAPACK package :  Parallel linear algebra routines


----- Orbital basis set information -----
Your calculation utilizes the basis: 6-31G
   H-He, Li-Ne : W. J. Hehre, R. Ditchfield and J.A. Pople, J. Chem. Phys. 56, 2257 (1972).
                 Note: He and Ne are unpublished basis sets taken from the Gaussian program.
                 Note: Li and B from J. D. Dill and J. A. Pople, J. Chem. Phys. 62, 2921 (1975).
   Na - Ar     : M. M. Francl, W. J. Pietro, W. J. Hehre, J. S. Binkley, M. S. Gordon, 
                 D. J. DeFrees and J. A. Pople, J. Chem. Phys. 77, 3654 (1982).
   K - Zn      : V. A. Rassolov, J. A. Pople, M. A. Ratner, and T. L. Windus, J. Chem. Phys. 109, 1223 (1998).

================================================================================
                                        WARNINGS
                       Please study these warnings very carefully!
================================================================================


WARNING: Geometry Optimization
  ===> : Switching off AutoStart
         For restart on a previous wavefunction, please use MOREAD

INFO   : the flag for use of LIBINT has been found!

================================================================================
                                       INPUT FILE
================================================================================
NAME = project_8053/ensemble_345_270.inp
|  1> # Test redundant internal optimization
|  2> #
|  3> ! RKS B3LYP  Opt TightSCF SmallPrint
|  4> 
|  5> %basis
|  6>         Basis "6-31G"
|  7> end
|  8> 
|  9> %geom
| 10> Constraints
| 11> { D 4  0  15  12  345.0   C } # D for Dihedral angle
| 12> { D 0  15  12  16  270.0   C } # D for Dihedral angle
| 13> { D 0  4  3  2   C } # D for Dihedral angle
| 14> { D 4  3  2  1   C } # D for Dihedral angle
| 15> { D 3  2  1  0   C } # D for Dihedral angle
| 16> { D 2  1  0  4   C } # D for Dihedral angle
| 17> { D 1  0  4  3   C } # D for Dihedral angle
| 18> { D 16  20  19  18   C } # D for Dihedral angle
| 19> { D 20  19  18  17   C } # D for Dihedral angle
| 20> { D 19  18  17  16   C } # D for Dihedral angle
| 21> { D 18  17  16  20   C } # D for Dihedral angle
| 22> { D 17  16  20  19   C } # D for Dihedral angle
| 23> { D 15  12  16  20   C } # D for Dihedral angle
| 24> end
| 25> end
| 26> 
| 27> 
| 28> #%pal 
| 29> #nprocs 8
| 30> #end
| 31> 
| 32> * xyz 0 1
| 33> C  -21.048   26.222   46.251
| 34> C  -20.361   27.558   45.944
| 35> C  -20.329   28.222   47.341
| 36> C  -20.110   27.022   48.296
| 37> O  -20.473   25.807   47.535
| 38> H  -20.833   25.428   45.533
| 39> H  -19.344   27.382   45.576
| 40> H  -20.898   28.157   45.201
| 41> H  -19.543   28.978   47.434
| 42> H  -21.289   28.710   47.548
| 43> H  -20.733   27.082   49.195
| 44> H  -19.064   26.913   48.597
| 45> C  -23.221   25.764   47.645
| 46> H  -22.492   25.790   48.465
| 47> H  -24.106   26.335   47.955
| 48> O  -22.586   26.394   46.375
| 49> C  -23.661   24.290   47.429
| 50> C  -24.386   23.739   48.661
| 51> C  -25.798   24.347   48.493
| 52> C  -26.001   24.344   46.957
| 53> O  -24.658   24.205   46.356
| 54> H  -22.797   23.702   47.111
| 55> H  -24.428   22.645   48.616
| 56> O  -23.710   24.147   49.999
| 57> H  -26.572   23.776   49.017
| 58> H  -25.816   25.372   48.883
| 59> H  -26.463   25.269   46.593
| 60> H  -26.597   23.493   46.616
| 61> H  -23.657   25.239   50.069
| 62> *
| 63> 
| 64>                          ****END OF INPUT****
================================================================================

                       *****************************
                       * Geometry Optimization Run *
                       *****************************

Geometry optimization settings:
Update method            Update   .... BFGS
Choice of coordinates    CoordSys .... Z-matrix Internals
Initial Hessian          InHess   .... Almoef's Model

Convergence Tolerances:
Energy Change            TolE     ....  5.0000e-06 Eh
Max. Gradient            TolMAXG  ....  3.0000e-04 Eh/bohr
RMS Gradient             TolRMSG  ....  1.0000e-04 Eh/bohr
Max. Displacement        TolMAXD  ....  4.0000e-03 bohr
RMS Displacement         TolRMSD  ....  2.0000e-03 bohr
Strict Convergence                ....  False
------------------------------------------------------------------------------
                        ORCA OPTIMIZATION COORDINATE SETUP
------------------------------------------------------------------------------

The optimization will be done in new redundant internal coordinates
Making redundant internal coordinates   ...  (new redundants) done
Evaluating the initial hessian          ...  (Almloef) done
Evaluating the coordinates              ...  done
Calculating the B-matrix                .... done
Calculating the G-matrix                .... done
Diagonalizing the G-matrix              .... done
Imposing constraints:
 Iter   0:  RMS(Cart)=    0.0000824985 RMS(Int)=    0.0000476824
 Iter   1:  RMS(Cart)=    0.0000418559 RMS(Int)=    0.0000259127
 Iter   2:  RMS(Cart)=    0.0000224768 RMS(Int)=    0.0000153304
 Iter   3:  RMS(Cart)=    0.0000128044 RMS(Int)=    0.0000101095
 Iter   4:  RMS(Cart)=    0.0000077191 RMS(Int)=    0.0000074920
 Iter   5:  RMS(Cart)=    0.0000048959 RMS(Int)=    0.0000061449
 Iter   6:  RMS(Cart)=    0.0000032446 RMS(Int)=    0.0000054167
 Iter   7:  RMS(Cart)=    0.0000022359 RMS(Int)=    0.0000049903
 Iter   8:  RMS(Cart)=    0.0000016023 RMS(Int)=    0.0000047130
 Iter   9:  RMS(Cart)=    0.0000012016 RMS(Int)=    0.0000045107
 Iter  10:  RMS(Cart)=    0.0000009513 RMS(Int)=    0.0000043475
 Iter  11:  RMS(Cart)=    0.0000007986 RMS(Int)=    0.0000042058
 Iter  12:  RMS(Cart)=    0.0000007068 RMS(Int)=    0.0000040767
 Iter  13:  RMS(Cart)=    0.0000006507 RMS(Int)=    0.0000039558
 Iter  14:  RMS(Cart)=    0.0000006143 RMS(Int)=    0.0000038408
 Iter  15:  RMS(Cart)=    0.0000005882 RMS(Int)=    0.0000037304
 Iter  16:  RMS(Cart)=    0.0000005675 RMS(Int)=    0.0000036240
 Iter  17:  RMS(Cart)=    0.0000005492 RMS(Int)=    0.0000035213
 Iter  18:  RMS(Cart)=    0.0000005324 RMS(Int)=    0.0000034219
 Iter  19:  RMS(Cart)=    0.0000005165 RMS(Int)=    0.0000033256
 Iter  20:  RMS(Cart)=    0.0000005014 RMS(Int)=    0.0000032324
 Iter  21:  RMS(Cart)=    0.0000004869 RMS(Int)=    0.0000031421
 Iter  22:  RMS(Cart)=    0.0000004717 RMS(Int)=    0.0000030546
 Iter  23:  RMS(Cart)=    0.0000004579 RMS(Int)=    0.0000029699
 Iter  24:  RMS(Cart)=    0.0000004449 RMS(Int)=    0.0000028877
 Iter  25:  RMS(Cart)=    0.0000004313 RMS(Int)=    0.0000028081
 Iter  26:  RMS(Cart)=    0.0000004188 RMS(Int)=    0.0000027310
 Iter  27:  RMS(Cart)=    0.0000004053 RMS(Int)=    0.0000026562
 Iter  28:  RMS(Cart)=    0.0000003928 RMS(Int)=    0.0000025837
 Iter  29:  RMS(Cart)=    0.0000003823 RMS(Int)=    0.0000025134
 Iter  30:  RMS(Cart)=    0.0000003706 RMS(Int)=    0.0000024453
 Iter  31:  RMS(Cart)=    0.0000003593 RMS(Int)=    0.0000023792
 Iter  32:  RMS(Cart)=    0.0000003490 RMS(Int)=    0.0000023151
 Iter  33:  RMS(Cart)=    0.0000003384 RMS(Int)=    0.0000022530
 Iter  34:  RMS(Cart)=    0.0000003295 RMS(Int)=    0.0000021928
 Iter  35:  RMS(Cart)=    0.0000003183 RMS(Int)=    0.0000021343
 Iter  36:  RMS(Cart)=    0.0000003094 RMS(Int)=    0.0000020777
 Iter  37:  RMS(Cart)=    0.0000003001 RMS(Int)=    0.0000020227
 Iter  38:  RMS(Cart)=    0.0000002918 RMS(Int)=    0.0000019693
 Iter  39:  RMS(Cart)=    0.0000002832 RMS(Int)=    0.0000019176
 Iter  40:  RMS(Cart)=    0.0000002748 RMS(Int)=    0.0000018674
 Iter  41:  RMS(Cart)=    0.0000002666 RMS(Int)=    0.0000018187
 Iter  42:  RMS(Cart)=    0.0000002603 RMS(Int)=    0.0000017715
 Iter  43:  RMS(Cart)=    0.0000002511 RMS(Int)=    0.0000017256
 Iter  44:  RMS(Cart)=    0.0000002453 RMS(Int)=    0.0000016811
 Iter  45:  RMS(Cart)=    0.0000002373 RMS(Int)=    0.0000016379
 Iter  46:  RMS(Cart)=    0.0000002312 RMS(Int)=    0.0000015960
 Iter  47:  RMS(Cart)=    0.0000002236 RMS(Int)=    0.0000015553
 Iter  48:  RMS(Cart)=    0.0000002179 RMS(Int)=    0.0000015158
 Iter  49:  RMS(Cart)=    0.0000002116 RMS(Int)=    0.0000014775
 Iter  50:  RMS(Cart)=    0.0000002055 RMS(Int)=    0.0000014403
 Iter  51:  RMS(Cart)=    0.0000002005 RMS(Int)=    0.0000014041
 Iter  52:  RMS(Cart)=    0.0000001948 RMS(Int)=    0.0000013690
 Iter  53:  RMS(Cart)=    0.0000001892 RMS(Int)=    0.0000013350
 Iter  54:  RMS(Cart)=    0.0000001821 RMS(Int)=    0.0000013019
 Iter  55:  RMS(Cart)=    0.0000001777 RMS(Int)=    0.0000012697
 Iter  56:  RMS(Cart)=    0.0000001735 RMS(Int)=    0.0000012385
 Iter  57:  RMS(Cart)=    0.0000001686 RMS(Int)=    0.0000012082
 Iter  58:  RMS(Cart)=    0.0000001650 RMS(Int)=    0.0000011788
 Iter  59:  RMS(Cart)=    0.0000001604 RMS(Int)=    0.0000011502
 Iter  60:  RMS(Cart)=    0.0000001531 RMS(Int)=    0.0000011224
 Iter  61:  RMS(Cart)=    0.0000001516 RMS(Int)=    0.0000010954
 Iter  62:  RMS(Cart)=    0.0000001461 RMS(Int)=    0.0000010692
 Iter  63:  RMS(Cart)=    0.0000001432 RMS(Int)=    0.0000010437
 Iter  64:  RMS(Cart)=    0.0000001381 RMS(Int)=    0.0000010189
 Iter  65:  RMS(Cart)=    0.0000001383 RMS(Int)=    0.0000009949
 Iter  66:  RMS(Cart)=    0.0000001289 RMS(Int)=    0.0000009715
 Iter  67:  RMS(Cart)=    0.0000001310 RMS(Int)=    0.0000009487
 Iter  68:  RMS(Cart)=    0.0000001233 RMS(Int)=    0.0000009267
 Iter  69:  RMS(Cart)=    0.0000001191 RMS(Int)=    0.0000009052
 Iter  70:  RMS(Cart)=    0.0000001167 RMS(Int)=    0.0000008843
 Iter  71:  RMS(Cart)=    0.0000001146 RMS(Int)=    0.0000008640
 Iter  72:  RMS(Cart)=    0.0000001115 RMS(Int)=    0.0000008443
 Iter  73:  RMS(Cart)=    0.0000001074 RMS(Int)=    0.0000008251
 Iter  74:  RMS(Cart)=    0.0000001084 RMS(Int)=    0.0000008065
 Iter  75:  RMS(Cart)=    0.0000001016 RMS(Int)=    0.0000007883
 Iter  76:  RMS(Cart)=    0.0000000988 RMS(Int)=    0.0000007707
 Iter  77:  RMS(Cart)=    0.0000001000 RMS(Int)=    0.0000007535
 Iter  78:  RMS(Cart)=    0.0000000946 RMS(Int)=    0.0000007368
 Iter  79:  RMS(Cart)=    0.0000000921 RMS(Int)=    0.0000007206
 Iter  80:  RMS(Cart)=    0.0000000896 RMS(Int)=    0.0000007048
 Iter  81:  RMS(Cart)=    0.0000000900 RMS(Int)=    0.0000006894
 Iter  82:  RMS(Cart)=    0.0000000849 RMS(Int)=    0.0000006745
 Iter  83:  RMS(Cart)=    0.0000000853 RMS(Int)=    0.0000006599
 Iter  84:  RMS(Cart)=    0.0000000804 RMS(Int)=    0.0000006458
 Iter  85:  RMS(Cart)=    0.0000000783 RMS(Int)=    0.0000006320
 Iter  86:  RMS(Cart)=    0.0000000763 RMS(Int)=    0.0000006186
 Iter  87:  RMS(Cart)=    0.0000000769 RMS(Int)=    0.0000006056
 Iter  88:  RMS(Cart)=    0.0000000714 RMS(Int)=    0.0000005928
 Iter  89:  RMS(Cart)=    0.0000000731 RMS(Int)=    0.0000005805
 Iter  90:  RMS(Cart)=    0.0000000686 RMS(Int)=    0.0000005685
 Iter  91:  RMS(Cart)=    0.0000000669 RMS(Int)=    0.0000005567
 Iter  92:  RMS(Cart)=    0.0000000652 RMS(Int)=    0.0000005453
 Iter  93:  RMS(Cart)=    0.0000000635 RMS(Int)=    0.0000005342
 Iter  94:  RMS(Cart)=    0.0000000644 RMS(Int)=    0.0000005234
 Iter  95:  RMS(Cart)=    0.0000000603 RMS(Int)=    0.0000005128
 Iter  96:  RMS(Cart)=    0.0000000612 RMS(Int)=    0.0000005026
 Iter  97:  RMS(Cart)=    0.0000000572 RMS(Int)=    0.0000004926
 Iter  98:  RMS(Cart)=    0.0000000558 RMS(Int)=    0.0000004828
 Iter  99:  RMS(Cart)=    0.0000000568 RMS(Int)=    0.0000004733
 RMS(Cart) too big - taking linear step, building new B-matrix and trying again
Imposing constraints:
 Iter   0:  RMS(Cart)=    0.0000418551 RMS(Int)=    0.0000259126
 Iter   1:  RMS(Cart)=    0.0000224760 RMS(Int)=    0.0000153304
 Iter   2:  RMS(Cart)=    0.0000128038 RMS(Int)=    0.0000101096
 Iter   3:  RMS(Cart)=    0.0000077186 RMS(Int)=    0.0000074921
 Iter   4:  RMS(Cart)=    0.0000048956 RMS(Int)=    0.0000061450
 Iter   5:  RMS(Cart)=    0.0000032444 RMS(Int)=    0.0000054167
 Iter   6:  RMS(Cart)=    0.0000022357 RMS(Int)=    0.0000049904
 Iter   7:  RMS(Cart)=    0.0000016022 RMS(Int)=    0.0000047130
 Iter   8:  RMS(Cart)=    0.0000012015 RMS(Int)=    0.0000045107
 Iter   9:  RMS(Cart)=    0.0000009513 RMS(Int)=    0.0000043475
 Iter  10:  RMS(Cart)=    0.0000007986 RMS(Int)=    0.0000042058
 Iter  11:  RMS(Cart)=    0.0000007068 RMS(Int)=    0.0000040767
 Iter  12:  RMS(Cart)=    0.0000006507 RMS(Int)=    0.0000039558
 Iter  13:  RMS(Cart)=    0.0000006142 RMS(Int)=    0.0000038408
 Iter  14:  RMS(Cart)=    0.0000005882 RMS(Int)=    0.0000037304
 Iter  15:  RMS(Cart)=    0.0000005674 RMS(Int)=    0.0000036240
 Iter  16:  RMS(Cart)=    0.0000005494 RMS(Int)=    0.0000035213
 Iter  17:  RMS(Cart)=    0.0000005324 RMS(Int)=    0.0000034218
 Iter  18:  RMS(Cart)=    0.0000005169 RMS(Int)=    0.0000033256
 Iter  19:  RMS(Cart)=    0.0000005015 RMS(Int)=    0.0000032324
 Iter  20:  RMS(Cart)=    0.0000004860 RMS(Int)=    0.0000031421
 Iter  21:  RMS(Cart)=    0.0000004725 RMS(Int)=    0.0000030546
 Iter  22:  RMS(Cart)=    0.0000004579 RMS(Int)=    0.0000029699
 Iter  23:  RMS(Cart)=    0.0000004445 RMS(Int)=    0.0000028877
 Iter  24:  RMS(Cart)=    0.0000004313 RMS(Int)=    0.0000028081
 Iter  25:  RMS(Cart)=    0.0000004178 RMS(Int)=    0.0000027309
 Iter  26:  RMS(Cart)=    0.0000004069 RMS(Int)=    0.0000026562
 Iter  27:  RMS(Cart)=    0.0000003933 RMS(Int)=    0.0000025837
 Iter  28:  RMS(Cart)=    0.0000003812 RMS(Int)=    0.0000025134
 Iter  29:  RMS(Cart)=    0.0000003701 RMS(Int)=    0.0000024452
 Iter  30:  RMS(Cart)=    0.0000003605 RMS(Int)=    0.0000023792
 Iter  31:  RMS(Cart)=    0.0000003490 RMS(Int)=    0.0000023151
 Iter  32:  RMS(Cart)=    0.0000003390 RMS(Int)=    0.0000022530
 Iter  33:  RMS(Cart)=    0.0000003288 RMS(Int)=    0.0000021927
 Iter  34:  RMS(Cart)=    0.0000003178 RMS(Int)=    0.0000021343
 Iter  35:  RMS(Cart)=    0.0000003101 RMS(Int)=    0.0000020776
 Iter  36:  RMS(Cart)=    0.0000003008 RMS(Int)=    0.0000020226
 Iter  37:  RMS(Cart)=    0.0000002906 RMS(Int)=    0.0000019693
 Iter  38:  RMS(Cart)=    0.0000002839 RMS(Int)=    0.0000019176
 Iter  39:  RMS(Cart)=    0.0000002748 RMS(Int)=    0.0000018674
 Iter  40:  RMS(Cart)=    0.0000002674 RMS(Int)=    0.0000018187
 Iter  41:  RMS(Cart)=    0.0000002595 RMS(Int)=    0.0000017714
 Iter  42:  RMS(Cart)=    0.0000002518 RMS(Int)=    0.0000017256
 Iter  43:  RMS(Cart)=    0.0000002445 RMS(Int)=    0.0000016811
 Iter  44:  RMS(Cart)=    0.0000002373 RMS(Int)=    0.0000016379
 Iter  45:  RMS(Cart)=    0.0000002304 RMS(Int)=    0.0000015960
 Iter  46:  RMS(Cart)=    0.0000002245 RMS(Int)=    0.0000015553
 Iter  47:  RMS(Cart)=    0.0000002189 RMS(Int)=    0.0000015158
 Iter  48:  RMS(Cart)=    0.0000002108 RMS(Int)=    0.0000014774
 Iter  49:  RMS(Cart)=    0.0000002047 RMS(Int)=    0.0000014402
 Iter  50:  RMS(Cart)=    0.0000001996 RMS(Int)=    0.0000014041
 Iter  51:  RMS(Cart)=    0.0000001948 RMS(Int)=    0.0000013690
 Iter  52:  RMS(Cart)=    0.0000001875 RMS(Int)=    0.0000013349
 Iter  53:  RMS(Cart)=    0.0000001838 RMS(Int)=    0.0000013018
 Iter  54:  RMS(Cart)=    0.0000001798 RMS(Int)=    0.0000012697
 Iter  55:  RMS(Cart)=    0.0000001747 RMS(Int)=    0.0000012385
 Iter  56:  RMS(Cart)=    0.0000001669 RMS(Int)=    0.0000012082
 Iter  57:  RMS(Cart)=    0.0000001638 RMS(Int)=    0.0000011787
 Iter  58:  RMS(Cart)=    0.0000001604 RMS(Int)=    0.0000011501
 Iter  59:  RMS(Cart)=    0.0000001547 RMS(Int)=    0.0000011223
 Iter  60:  RMS(Cart)=    0.0000001504 RMS(Int)=    0.0000010954
 Iter  61:  RMS(Cart)=    0.0000001461 RMS(Int)=    0.0000010691
 Iter  62:  RMS(Cart)=    0.0000001432 RMS(Int)=    0.0000010437
 Iter  63:  RMS(Cart)=    0.0000001381 RMS(Int)=    0.0000010189
 Iter  64:  RMS(Cart)=    0.0000001354 RMS(Int)=    0.0000009948
CONVERGED
Small eigenvalue found = 7.830e-03
Small eigenvalue found = 1.225e-02
Small eigenvalue found = 1.675e-02
The first mode is                       ....   91
The number of degrees of freedom        ....   81
Storing new coordinates                 .... done

    -----------------------------------------------------------------
                    Redundant Internal Coordinates


    -----------------------------------------------------------------
         Definition                    Initial Value    Approx d2E/dq
    -----------------------------------------------------------------
      1. B(C   1,C   0)                  1.5333         0.369027   
      2. B(C   2,C   1)                  1.5471         0.350825   
      3. B(C   3,C   2)                  1.5492         0.348147   
      4. B(O   4,C   0)                  1.4668         0.422031   
      5. B(O   4,C   3)                  1.4789         0.403699   
      6. B(H   5,C   0)                  1.0919         0.357632   
      7. B(H   6,C   1)                  1.0958         0.352561   
      8. B(H   7,C   1)                  1.0951         0.353431   
      9. B(H   8,C   2)                  1.0945         0.354166   
     10. B(H   9,C   2)                  1.0966         0.351438   
     11. B(H  10,C   3)                  1.0954         0.353010   
     12. B(H  11,C   3)                  1.0939         0.354989   
     13. B(H  13,C  12)                  1.0975         0.350308   
     14. B(H  14,C  12)                  1.0979         0.349810   
     15. B(O  15,C   0)                  1.5525         0.307993   
     16. B(O  15,C  12)                  1.5534         0.307040   
     17. B(C  16,C  12)                  1.5534         0.342851   
     18. B(C  17,C  16)                  1.5320         0.370828   
     19. B(C  18,C  17)                  1.5465         0.351616   
     20. B(C  19,C  18)                  1.5494         0.347929   
     21. B(O  20,C  16)                  1.4672         0.421472   
     22. B(O  20,C  19)                  1.4779         0.405178   
     23. B(H  21,C  16)                  1.0924         0.356923   
     24. B(H  22,C  17)                  1.0957         0.352599   
     25. B(O  23,C  17)                  1.5536         0.306801   
     26. B(H  24,C  18)                  1.0953         0.353150   
     27. B(H  25,C  18)                  1.0968         0.351170   
     28. B(H  26,C  19)                  1.0962         0.352044   
     29. B(H  27,C  19)                  1.0935         0.355526   
     30. B(H  28,O  23)                  1.0955         0.316043   
     31. A(O   4,C   0,H   5)          107.0166         0.328541   
     32. A(C   1,C   0,O  15)          111.3062         0.348740   
     33. A(C   1,C   0,O   4)          104.2509         0.367935   
     34. A(O   4,C   0,O  15)          110.4722         0.354548   
     35. A(C   1,C   0,H   5)          114.4408         0.323302   
     36. A(H   5,C   0,O  15)          109.1540         0.312058   
     37. A(C   0,C   1,C   2)          101.6783         0.358729   
     38. A(C   2,C   1,H   7)          112.8334         0.320016   
     39. A(C   2,C   1,H   6)          110.6701         0.319888   
     40. A(C   0,C   1,H   6)          110.0681         0.322546   
     41. A(H   6,C   1,H   7)          108.3679         0.289027   
     42. A(C   0,C   1,H   7)          113.1246         0.322677   
     43. A(C   1,C   2,H   8)          112.8312         0.320125   
     44. A(C   1,C   2,C   3)          103.1286         0.355196   
     45. A(C   1,C   2,H   9)          110.0795         0.319721   
     46. A(C   3,C   2,H   9)          110.6147         0.319321   
     47. A(C   3,C   2,H   8)          112.4032         0.319725   
     48. A(H   8,C   2,H   9)          107.7731         0.288977   
     49. A(O   4,C   3,H  10)          109.1301         0.325449   
     50. A(C   2,C   3,H  10)          112.5254         0.319554   
     51. A(C   2,C   3,O   4)          106.5267         0.361529   
     52. A(O   4,C   3,H  11)          107.1240         0.325748   
     53. A(H  10,C   3,H  11)          108.8727         0.289284   
     54. A(C   2,C   3,H  11)          112.4569         0.319846   
     55. A(C   0,O   4,C   3)          108.3127         0.371320   
     56. A(H  14,C  12,C  16)          107.7191         0.318283   
     57. A(H  13,C  12,H  14)          108.1887         0.288272   
     58. A(H  13,C  12,O  15)          109.2497         0.310860   
     59. A(H  14,C  12,O  15)          110.4541         0.310788   
     60. A(O  15,C  12,C  16)          112.7647         0.344272   
     61. A(H  13,C  12,C  16)          108.3379         0.318356   
     62. A(C   0,O  15,C  12)          115.1709         0.336101   
     63. A(C  12,C  16,C  17)          111.3152         0.357625   
     64. A(C  12,C  16,O  20)          110.4358         0.363246   
     65. A(C  17,C  16,O  20)          104.2232         0.368159   
     66. A(C  12,C  16,H  21)          109.0998         0.319330   
     67. A(C  17,C  16,H  21)          114.5058         0.323455   
     68. A(O  20,C  16,H  21)          107.0611         0.328362   
     69. A(C  16,C  17,C  18)          101.7315         0.359164   
     70. A(C  16,C  17,H  22)          110.1331         0.322809   
     71. A(C  18,C  17,H  22)          110.6752         0.320011   
     72. A(C  16,C  17,O  23)          113.0919         0.348799   
     73. A(C  18,C  17,O  23)          112.8043         0.345689   
     74. A(H  22,C  17,O  23)          108.3155         0.311148   
     75. A(C  17,C  18,C  19)          103.0945         0.355294   
     76. A(C  17,C  18,H  24)          112.8472         0.320093   
     77. A(C  19,C  18,H  24)          112.3762         0.319542   
     78. A(C  17,C  18,H  25)          110.1060         0.319799   
     79. A(C  19,C  18,H  25)          110.6197         0.319249   
     80. A(H  24,C  18,H  25)          107.7864         0.288812   
     81. A(C  18,C  19,O  20)          106.5155         0.361716   
     82. A(C  18,C  19,H  26)          112.5068         0.319378   
     83. A(O  20,C  19,H  26)          109.1068         0.325498   
     84. A(C  18,C  19,H  27)          112.4625         0.319892   
     85. A(O  20,C  19,H  27)          107.1747         0.326025   
     86. A(H  26,C  19,H  27)          108.8718         0.289228   
     87. A(C  16,O  20,C  19)          108.3407         0.371469   
     88. A(C  17,O  23,H  28)          109.7459         0.303187   
     89. D(H   7,C   1,C   0,H   5)     82.1535         0.010890   
     90. D(C   2,C   1,C   0,O  15)     79.0888         0.010890   
     91. D(H   7,C   1,C   0,O  15)    -42.1859         0.010890   
     92. D(H   6,C   1,C   0,O   4)     77.3245         0.010890   
     93. D(H   6,C   1,C   0,O  15)   -163.5721         0.010890   
     94. D(H   6,C   1,C   0,H   5)    -39.2326         0.010890   
     95. D(H   7,C   1,C   0,O   4)   -161.2893         0.010890   
     96. D(C   2,C   1,C   0,O   4)    -40.0146         0.010890 C 
     97. D(C   2,C   1,C   0,H   5)   -156.5718         0.010890   
     98. D(H   9,C   2,C   1,H   6)    160.0777         0.009912   
     99. D(H   8,C   2,C   1,C   0)    156.5478         0.009912   
    100. D(H   8,C   2,C   1,H   6)     39.6450         0.009912   
    101. D(C   3,C   2,C   1,C   0)     35.0268         0.009912 C 
    102. D(H   8,C   2,C   1,H   7)    -81.9750         0.009912   
    103. D(H   9,C   2,C   1,C   0)    -83.0196         0.009912   
    104. D(C   3,C   2,C   1,H   6)    -81.8760         0.009912   
    105. D(H   9,C   2,C   1,H   7)     38.4577         0.009912   
    106. D(C   3,C   2,C   1,H   7)    156.5040         0.009912   
    107. D(H  11,C   3,C   2,H   9)   -143.4626         0.009774   
    108. D(O   4,C   3,C   2,H   8)   -140.0068         0.009774   
    109. D(O   4,C   3,C   2,H   9)     99.4741         0.009774   
    110. D(H  10,C   3,C   2,C   1)   -137.7432         0.009774   
    111. D(H  10,C   3,C   2,H   8)    100.4467         0.009774   
    112. D(H  10,C   3,C   2,H   9)    -20.0724         0.009774   
    113. D(H  11,C   3,C   2,C   1)     98.8666         0.009774   
    114. D(O   4,C   3,C   2,C   1)    -18.1967         0.009774 C 
    115. D(H  11,C   3,C   2,H   8)    -22.9436         0.009774   
    116. D(C   3,O   4,C   0,C   1)     29.5920         0.014035 C 
    117. D(C   3,O   4,C   0,H   5)    151.2041         0.014035   
    118. D(C   3,O   4,C   0,O  15)    -90.0766         0.014035   
    119. D(C   0,O   4,C   3,C   2)     -6.8730         0.012866 C 
    120. D(C   0,O   4,C   3,H  10)    114.8547         0.012866   
    121. D(C   0,O   4,C   3,H  11)   -127.4270         0.012866   
    122. D(C   0,O  15,C  12,C  16)    -90.0000         0.007751 C 
    123. D(C  12,O  15,C   0,O   4)    -15.0000         0.007793 C 
    124. D(C  12,O  15,C   0,H   5)    102.4100         0.007793   
    125. D(C   0,O  15,C  12,H  14)    149.4171         0.007751   
    126. D(C   0,O  15,C  12,H  13)     30.5272         0.007751   
    127. D(C  12,O  15,C   0,C   1)   -130.3181         0.007793   
    128. D(C  17,C  16,C  12,H  13)     63.6625         0.009503   
    129. D(H  21,C  16,C  12,H  14)    179.5244         0.009503   
    130. D(C  17,C  16,C  12,O  15)   -175.2895         0.009503   
    131. D(O  20,C  16,C  12,H  13)    178.9299         0.009503   
    132. D(O  20,C  16,C  12,H  14)     62.1139         0.009503   
    133. D(O  20,C  16,C  12,O  15)    -60.0221         0.009503 C 
    134. D(C  17,C  16,C  12,H  14)    -53.1535         0.009503   
    135. D(H  21,C  16,C  12,H  13)    -63.6596         0.009503   
    136. D(H  21,C  16,C  12,O  15)     57.3884         0.009503   
    137. D(C  18,C  17,C  16,C  12)     79.0509         0.010990   
    138. D(C  18,C  17,C  16,O  20)    -39.9976         0.010990 C 
    139. D(C  18,C  17,C  16,H  21)   -156.6244         0.010990   
    140. D(H  22,C  17,C  16,C  12)   -163.5490         0.010990   
    141. D(H  22,C  17,C  16,O  20)     77.4025         0.010990   
    142. D(H  22,C  17,C  16,H  21)    -39.2243         0.010990   
    143. D(O  23,C  17,C  16,C  12)    -42.2058         0.010990   
    144. D(O  23,C  17,C  16,O  20)   -161.2544         0.010990   
    145. D(O  23,C  17,C  16,H  21)     82.1188         0.010990   
    146. D(H  24,C  18,C  17,O  23)    -82.0073         0.009954   
    147. D(C  19,C  18,C  17,H  22)    -81.9468         0.009954   
    148. D(C  19,C  18,C  17,O  23)    156.5176         0.009954   
    149. D(H  24,C  18,C  17,C  16)    156.5361         0.009954   
    150. D(C  19,C  18,C  17,C  16)     35.0610         0.009954 C 
    151. D(H  24,C  18,C  17,H  22)     39.5283         0.009954   
    152. D(H  25,C  18,C  17,C  16)    -82.9849         0.009954   
    153. D(H  25,C  18,C  17,H  22)    160.0073         0.009954   
    154. D(H  25,C  18,C  17,O  23)     38.4717         0.009954   
    155. D(H  27,C  19,C  18,H  25)   -143.4316         0.009763   
    156. D(O  20,C  19,C  18,H  24)   -140.0313         0.009763   
    157. D(O  20,C  19,C  18,H  25)     99.4475         0.009763   
    158. D(H  26,C  19,C  18,C  17)   -137.7376         0.009763   
    159. D(H  26,C  19,C  18,H  24)    100.4688         0.009763   
    160. D(H  26,C  19,C  18,H  25)    -20.0524         0.009763   
    161. D(H  27,C  19,C  18,C  17)     98.8832         0.009763   
    162. D(O  20,C  19,C  18,C  17)    -18.2377         0.009763 C 
    163. D(H  27,C  19,C  18,H  24)    -22.9104         0.009763   
    164. D(C  19,O  20,C  16,C  12)    -90.1114         0.013999   
    165. D(C  19,O  20,C  16,C  17)     29.5336         0.013999 C 
    166. D(C  19,O  20,C  16,H  21)    151.2281         0.013999   
    167. D(C  16,O  20,C  19,C  18)     -6.8035         0.012958 C 
    168. D(C  16,O  20,C  19,H  26)    114.8821         0.012958   
    169. D(C  16,O  20,C  19,H  27)   -127.3849         0.012958   
    170. D(H  28,O  23,C  17,C  16)     57.7091         0.007741   
    171. D(H  28,O  23,C  17,C  18)    -57.0651         0.007741   
    172. D(H  28,O  23,C  17,H  22)   -179.9275         0.007741   
    -----------------------------------------------------------------

Number of atoms                         .... 29
Number of degrees of freedom            .... 172

         *************************************************************
         *                GEOMETRY OPTIMIZATION CYCLE   1            *
         *************************************************************
---------------------------------
CARTESIAN COORDINATES (ANGSTROEM)
---------------------------------
  C    -21.047901   26.222004   46.250928
  C    -20.360989   27.558060   45.944028
  C    -20.329131   28.221981   47.341058
  C    -20.110103   27.021965   48.296034
  O    -20.472963   25.806961   47.534950
  H    -20.832797   25.428018   45.532945
  H    -19.343948   27.382158   45.576094
  H    -20.897981   28.157048   45.201013
  H    -19.543194   28.978036   47.434144
  H    -21.289183   28.709897   47.548015
  H    -20.733169   27.081885   49.194993
  H    -19.064116   26.913033   48.597103
  C    -23.220907   25.763891   47.644882
  H    -22.491888   25.789995   48.464862
  H    -24.105929   26.334872   47.954858
  O    -22.585932   26.393806   46.374827
  C    -23.661008   24.289911   47.428956
  C    -24.385996   23.739017   48.661013
  C    -25.797963   24.347108   48.493051
  C    -26.001027   24.344052   46.957060
  O    -24.658065   24.204931   46.356009
  H    -22.797061   23.701834   47.110953
  H    -24.428073   22.645017   48.616065
  O    -23.709911   24.147032   49.998966
  H    -26.571980   23.776186   49.017111
  H    -25.815875   25.372127   48.883006
  H    -26.462978   25.269067   46.593037
  H    -26.597100   23.493077   46.616125
  H    -23.656833   25.239032   50.068913

----------------------------
CARTESIAN COORDINATES (A.U.)
----------------------------
  NO LB      ZA    FRAG     MASS         X           Y           Z
   0 C     6.0000    0    12.011  -39.774769   49.552407   87.401588
   1 C     6.0000    0    12.011  -38.476692   52.077186   86.821630
   2 C     6.0000    0    12.011  -38.416490   53.331816   89.461635
   3 C     6.0000    0    12.011  -38.002587   51.064114   91.266277
   4 O     8.0000    0    15.999  -38.688293   48.768088   89.828037
   5 H     1.0000    0     1.008  -39.368280   48.051990   86.044796
   6 H     1.0000    0     1.008  -36.554763   51.744779   86.126336
   7 H     1.0000    0     1.008  -39.491461   53.209109   85.417535
   8 H     1.0000    0     1.008  -36.931284   54.760551   89.637542
   9 H     1.0000    0     1.008  -40.230726   54.253843   89.852726
  10 H     1.0000    0     1.008  -39.180012   51.177345   92.965064
  11 H     1.0000    0     1.008  -36.025957   50.858262   91.835215
  12 C     6.0000    0    12.011  -43.881155   48.686699   90.035779
  13 H     1.0000    0     1.008  -42.503509   48.736027   91.585316
  14 H     1.0000    0     1.008  -45.553603   49.765695   90.621548
  15 O     8.0000    0    15.999  -42.681225   49.877064   87.635723
  16 C     6.0000    0    12.011  -44.712825   45.901279   89.627737
  17 C     6.0000    0    12.011  -46.082854   44.860240   91.955989
  18 C     6.0000    0    12.011  -48.751085   46.009367   91.638587
  19 C     6.0000    0    12.011  -49.134820   46.003591   88.735984
  20 O     8.0000    0    15.999  -46.596991   45.740691   87.600162
  21 H     1.0000    0     1.008  -43.080202   44.789976   89.026799
  22 H     1.0000    0     1.008  -46.162367   42.792881   91.871048
  23 O     8.0000    0    15.999  -44.805238   45.631277   94.484352
  24 H     1.0000    0     1.008  -50.213765   44.930480   92.628916
  25 H     1.0000    0     1.008  -48.784934   47.946372   92.375494
  26 H     1.0000    0     1.008  -50.007781   47.751616   88.048080
  27 H     1.0000    0     1.008  -50.261236   44.395482   88.091710
  28 H     1.0000    0     1.008  -44.704936   47.694858   94.616534

--------------------------------
INTERNAL COORDINATES (ANGSTROEM)
--------------------------------
 C      0   0   0     0.000000000000     0.00000000     0.00000000
 C      1   0   0     1.533334275362     0.00000000     0.00000000
 C      2   1   0     1.547103422529   101.67907390     0.00000000
 C      3   2   1     1.549188819996   103.12737509    35.02687180
 O      1   2   3     1.466801281701   104.24948604   319.98542309
 H      1   2   3     1.091872245274   114.43876658   203.42640133
 H      2   1   3     1.095759553917   110.06782188   117.34000099
 H      2   1   3     1.095088580892   113.12442239   238.72597460
 H      3   2   1     1.094523183857   112.83161078   156.54780790
 H      3   2   1     1.096628013503   110.07982737   276.98070077
 H      4   3   2     1.095413164062   112.52534669   222.25678475
 H      4   3   2     1.093891219455   112.45670684    98.86663270
 C      1   2   3     2.622008581222   129.04709754    47.32982269
 H     13   1   2     1.097504897483    80.94398150   275.19914157
 H     13   1   2     1.097891615780   136.66232051    22.15618834
 O      1   2   3     1.552547583812   111.30349807    79.08752829
 C     13   1   2     1.553361516196   109.06090105   168.82571961
 C     17  13   1     1.532008485616   111.31576809   150.16975548
 C     18  17  13     1.546490219820   101.73124292    79.05125376
 C     19  18  17     1.549359222388   103.09479160    35.06093591
 O     17  13   1     1.467161545298   110.43570648   265.43787721
 H     17  13   1     1.092412010187   109.09930041    22.84720309
 H     18  17  13     1.095730350041   110.13320138   196.45116867
 O     18  17  13     1.553603553034   113.09196991   317.79433574
 H     19  18  17     1.095304980359   112.84711005   156.53606522
 H     19  18  17     1.096835903862   110.10592122   277.01504577
 H     20  19  18     1.096159203766   112.50681938   222.26238699
 H     20  19  18     1.093479766617   112.46257327    98.88317107
 H     24  18  17     1.095524075500   109.74593450    57.70906670

---------------------------
INTERNAL COORDINATES (A.U.)
---------------------------
 C      0   0   0     0.000000000000     0.00000000     0.00000000
 C      1   0   0     2.897581852189     0.00000000     0.00000000
 C      2   1   0     2.923601769431   101.67907390     0.00000000
 C      3   2   1     2.927542599525   103.12737509    35.02687180
 O      1   2   3     2.771852715300   104.24948604   319.98542309
 H      1   2   3     2.063339516798   114.43876658   203.42640133
 H      2   1   3     2.070685465531   110.06782188   117.34000099
 H      2   1   3     2.069417510270   113.12442239   238.72597460
 H      3   2   1     2.068349064717   112.83161078   156.54780790
 H      3   2   1     2.072326616307   110.07982737   276.98070077
 H      4   3   2     2.070030883569   112.52534669   222.25678475
 H      4   3   2     2.067154825070   112.45670684    98.86663270
 C      1   2   3     4.954878139300   129.04709754    47.32982269
 H     13   1   2     2.073983686881    80.94398150   275.19914157
 H     13   1   2     2.074714478552   136.66232051    22.15618834
 O      1   2   3     2.933889743286   111.30349807    79.08752829
 C     13   1   2     2.935427852584   109.06090105   168.82571961
 C     17  13   1     2.895076472658   111.31576809   150.16975548
 C     18  17  13     2.922442984248   101.73124292    79.05125376
 C     19  18  17     2.927864613379   103.09479160    35.06093591
 O     17  13   1     2.772533514833   110.43570648   265.43787721
 H     17  13   1     2.064359524659   109.09930041    22.84720309
 H     18  17  13     2.070630278202   110.13320138   196.45116867
 O     18  17  13     2.935885235921   113.09196991   317.79433574
 H     19  18  17     2.069826445999   112.84711005   156.53606522
 H     19  18  17     2.072719472150   110.10592122   277.01504577
 H     20  19  18     2.071440694294   112.50681938   222.26238699
 H     20  19  18     2.066377291890   112.46257327    98.88317107
 H     24  18  17     2.070240475812   109.74593450    57.70906670

---------------------
BASIS SET INFORMATION
---------------------
There are 3 groups of distinct atoms

 Group   1 Type C   : 10s4p contracted to 3s2p pattern {631/31}
 Group   2 Type O   : 10s4p contracted to 3s2p pattern {631/31}
 Group   3 Type H   : 4s contracted to 2s pattern {31}

Atom   0C    basis set group =>   1
Atom   1C    basis set group =>   1
Atom   2C    basis set group =>   1
Atom   3C    basis set group =>   1
Atom   4O    basis set group =>   2
Atom   5H    basis set group =>   3
Atom   6H    basis set group =>   3
Atom   7H    basis set group =>   3
Atom   8H    basis set group =>   3
Atom   9H    basis set group =>   3
Atom  10H    basis set group =>   3
Atom  11H    basis set group =>   3
Atom  12C    basis set group =>   1
Atom  13H    basis set group =>   3
Atom  14H    basis set group =>   3
Atom  15O    basis set group =>   2
Atom  16C    basis set group =>   1
Atom  17C    basis set group =>   1
Atom  18C    basis set group =>   1
Atom  19C    basis set group =>   1
Atom  20O    basis set group =>   2
Atom  21H    basis set group =>   3
Atom  22H    basis set group =>   3
Atom  23O    basis set group =>   2
Atom  24H    basis set group =>   3
Atom  25H    basis set group =>   3
Atom  26H    basis set group =>   3
Atom  27H    basis set group =>   3
Atom  28H    basis set group =>   3
------------------------------------------------------------------------------
                           ORCA GTO INTEGRAL CALCULATION
------------------------------------------------------------------------------

                         BASIS SET STATISTICS AND STARTUP INFO

 # of primitive gaussian shells          ...  246
 # of primitive gaussian functions       ...  350
 # of contracted shells                  ...   97
 # of contracted basis functions         ...  149
 Highest angular momentum                ...    1
 Maximum contraction depth               ...    6
 Integral package used                   ... LIBINT
 Integral threshhold            Thresh   ...  2.500e-11
 Primitive cut-off              TCut     ...  2.500e-12


------------------------------ INTEGRAL EVALUATION ----------------------------


 * One electron integrals 
 Pre-screening matrix                    ... done
 Shell pair data                         ... done (   0.003 sec)

-------------------------------------------------------------------------------
                                 ORCA SCF
-------------------------------------------------------------------------------

------------
SCF SETTINGS
------------
Hamiltonian:
 Density Functional     Method          .... DFT(GTOs)
 Exchange Functional    Exchange        .... B88
   X-Alpha parameter    XAlpha          ....  0.666667
   Becke's b parameter  XBeta           ....  0.004200
 Correlation Functional Correlation     .... LYP
 LDA part of GGA corr.  LDAOpt          .... VWN-5
 Gradients option       PostSCFGGA      .... off
 Hybrid DFT is turned on
   Fraction HF Exchange ScalHFX         ....  0.200000
   Scaling of DF-GGA-X  ScalDFX         ....  0.720000
   Scaling of DF-GGA-C  ScalDFC         ....  0.810000
   Scaling of DF-LDA-C  ScalLDAC        ....  1.000000
   Perturbative correction              ....  0.000000
   Density functional embedding theory  .... OFF
   NL short-range parameter             ....  4.800000


General Settings:
 Integral files         IntName         .... project_8053/ensemble_345_270
 Hartree-Fock type      HFTyp           .... RHF
 Total Charge           Charge          ....    0
 Multiplicity           Mult            ....    1
 Number of Electrons    NEL             ....  102
 Basis Dimension        Dim             ....  149
 Nuclear Repulsion      ENuc            ....    869.9322345205 Eh

Convergence Acceleration:
 DIIS                   CNVDIIS         .... on
   Start iteration      DIISMaxIt       ....    12
   Startup error        DIISStart       ....  0.200000
   # of expansion vecs  DIISMaxEq       ....     5
   Bias factor          DIISBfac        ....   1.050
   Max. coefficient     DIISMaxC        ....  10.000
 Newton-Raphson         CNVNR           .... off
 SOSCF                  CNVSOSCF        .... on
   Start iteration      SOSCFMaxIt      ....   150
   Startup grad/error   SOSCFStart      ....  0.003300
 Level Shifting         CNVShift        .... on
   Level shift para.    LevelShift      ....    0.2500
   Turn off err/grad.   ShiftErr        ....    0.0010
 Zerner damping         CNVZerner       .... off
 Static damping         CNVDamp         .... on
   Fraction old density DampFac         ....    0.7000
   Max. Damping (<1)    DampMax         ....    0.9800
   Min. Damping (>=0)   DampMin         ....    0.0000
   Turn off err/grad.   DampErr         ....    0.1000
 Fernandez-Rico         CNVRico         .... off

SCF Procedure:
 Maximum # iterations   MaxIter         ....   125
 SCF integral mode      SCFMode         .... Direct
   Integral package                     .... LIBINT
 Reset frequency        DirectResetFreq ....    20
 Integral Threshold     Thresh          ....  2.500e-11 Eh
 Primitive CutOff       TCut            ....  2.500e-12 Eh

Convergence Tolerance:
 Convergence Check Mode ConvCheckMode   .... Total+1el-Energy
 Convergence forced     ConvForced      .... 0
 Energy Change          TolE            ....  1.000e-08 Eh
 1-El. energy change                    ....  1.000e-05 Eh
 Orbital Gradient       TolG            ....  1.000e-05
 Orbital Rotation angle TolX            ....  1.000e-05
 DIIS Error             TolErr          ....  5.000e-07


Diagonalization of the overlap matrix:
Smallest eigenvalue                        ... 3.932e-03
Time for diagonalization                   ...    0.005 sec
Threshold for overlap eigenvalues          ... 1.000e-08
Number of eigenvalues below threshold      ... 0
Time for construction of square roots      ...    0.013 sec
Total time needed                          ...    0.019 sec

-------------------
DFT GRID GENERATION
-------------------

General Integration Accuracy     IntAcc      ...  4.340
Radial Grid Type                 RadialGrid  ... Gauss-Chebyshev
Angular Grid (max. acc.)         AngularGrid ... Lebedev-110
Angular grid pruning method      GridPruning ... 3 (G Style)
Weight generation scheme         WeightScheme... Becke
Basis function cutoff            BFCut       ...    1.0000e-11
Integration weight cutoff        WCut        ...    1.0000e-14
Grids for H and He will be reduced by one unit

# of grid points (after initial pruning)     ...  34472 (   0.0 sec)
# of grid points (after weights+screening)   ...  30967 (   0.3 sec)
nearest neighbour list constructed           ...    0.0 sec
Grid point re-assignment to atoms done       ...    0.0 sec
Grid point division into batches done        ...    0.0 sec
Reduced shell lists constructed in    0.3 sec

Total number of grid points                  ...    30967
Total number of batches                      ...      498
Average number of points per batch           ...       62
Average number of grid points per atom       ...     1068
Average number of shells per batch           ...    58.63 (60.44%)
Average number of basis functions per batch  ...    95.19 (63.89%)
Average number of large shells per batch     ...    41.15 (70.20%)
Average number of large basis fcns per batch ...    68.01 (71.45%)
Maximum spatial batch extension              ...  20.65, 20.09, 19.27 au
Average spatial batch extension              ...   3.34,  3.35,  3.36 au

Time for grid setup =    0.875 sec

------------------------------
INITIAL GUESS: MODEL POTENTIAL
------------------------------
Loading Hartree-Fock densities                     ... done
Calculating cut-offs                               ... done
Setting up the integral package                    ... done
Initializing the effective Hamiltonian             ... done
Starting the Coulomb interaction                   ... done (   0.4 sec)
Reading the grid                                   ... done
Mapping shells                                     ... done
Starting the XC term evaluation                    ... done (   0.4 sec)
  promolecular density results
     # of electrons  =    102.000316403
     EX              =    -83.669672059
     EC              =     -3.459599729
     EX+EC           =    -87.129271788
Transforming the Hamiltonian                       ... done (   0.0 sec)
Diagonalizing the Hamiltonian                      ... done (   0.0 sec)
Back transforming the eigenvectors                 ... done (   0.0 sec)
Now organizing SCF variables                       ... done
                      ------------------
                      INITIAL GUESS DONE (   1.8 sec)
                      ------------------
--------------
SCF ITERATIONS
--------------
ITER       Energy         Delta-E        Max-DP      RMS-DP      [F,P]     Damp
               ***  Starting incremental Fock matrix formation  ***
  0   -652.5320115215   0.000000000000 0.07916852  0.00306725  0.2660771 0.7000
  1   -652.6710273707  -0.139015849270 0.04826870  0.00210866  0.1179901 0.7000
                               ***Turning on DIIS***
  2   -652.7236244330  -0.052597062208 0.06073770  0.00338028  0.0314935 0.0000
  3   -652.8095633278  -0.085938894803 0.03206550  0.00138197  0.0641533 0.0000
  4   -652.8271237444  -0.017560416672 0.00880438  0.00043257  0.0096094 0.0000
  5   -652.8281175688  -0.000993824419 0.00267354  0.00013378  0.0041640 0.0000
                      *** Initiating the SOSCF procedure ***
                           *** Shutting down DIIS ***
                      *** Re-Reading the Fockian *** 
                      *** Removing any level shift *** 
ITER      Energy       Delta-E        Grad      Rot      Max-DP    RMS-DP
  6   -652.82819084  -0.0000732735  0.000170  0.000170  0.000865  0.000054
               *** Restarting incremental Fock matrix formation ***
  7   -652.82819364  -0.0000027955  0.000146  0.000267  0.001060  0.000034
  8   -652.82819093   0.0000027109  0.000257  0.000191  0.000729  0.000022
  9   -652.82819507  -0.0000041452  0.000024  0.000036  0.000225  0.000007
 10   -652.82819500   0.0000000709  0.000037  0.000021  0.000135  0.000004
 11   -652.82819514  -0.0000001359  0.000006  0.000006  0.000034  0.000001
 12   -652.82819513   0.0000000029  0.000009  0.000004  0.000020  0.000001
                  ***Gradient check signals convergence***
              ***Rediagonalizing the Fockian in SOSCF/NRSCF***

               *****************************************************
               *                     SUCCESS                       *
               *           SCF CONVERGED AFTER  13 CYCLES          *
               *****************************************************

Setting up the final grid:

General Integration Accuracy     IntAcc      ...  4.670
Radial Grid Type                 RadialGrid  ... Gauss-Chebyshev
Angular Grid (max. acc.)         AngularGrid ... Lebedev-302
Angular grid pruning method      GridPruning ... 3 (G Style)
Weight generation scheme         WeightScheme... Becke
Basis function cutoff            BFCut       ...    1.0000e-11
Integration weight cutoff        WCut        ...    1.0000e-14
Grids for H and He will be reduced by one unit

# of grid points (after initial pruning)     ... 135060 (   0.1 sec)
# of grid points (after weights+screening)   ... 118844 (   1.2 sec)
nearest neighbour list constructed           ...    0.0 sec
Grid point re-assignment to atoms done       ...    0.0 sec
Grid point division into batches done        ...    0.4 sec
Reduced shell lists constructed in    1.6 sec

Total number of grid points                  ...   118844
Total number of batches                      ...     1871
Average number of points per batch           ...       63
Average number of grid points per atom       ...     4098
Average number of shells per batch           ...    53.53 (55.18%)
Average number of basis functions per batch  ...    87.20 (58.52%)
Average number of large shells per batch     ...    36.87 (68.88%)
Average number of large basis fcns per batch ...    61.08 (70.05%)
Maximum spatial batch extension              ...  19.53, 18.24, 21.51 au
Average spatial batch extension              ...   2.18,  2.23,  2.26 au

Final grid set up in    4.6 sec
Final integration                            ... done (   1.8 sec)
Change in XC energy                          ...     0.000932265
Integrated number of electrons               ...   101.999865986
Previous integrated no of electrons          ...   102.006959518

----------------
TOTAL SCF ENERGY
----------------

Total Energy       :         -652.82726287 Eh          -17764.33294 eV

Components:
Nuclear Repulsion  :          869.93223452 Eh           23672.05957 eV
Electronic Energy  :        -1522.75949739 Eh          -41436.39251 eV
One Electron Energy:        -2617.74665518 Eh          -71232.50788 eV
Two Electron Energy:         1094.98715778 Eh           29796.11537 eV

Virial components:
Potential Energy   :        -1301.76361062 Eh          -35422.78870 eV
Kinetic Energy     :          648.93634774 Eh           17658.45576 eV
Virial Ratio       :            2.00599583


DFT components:
N(Alpha)           :       50.999932993205 electrons
N(Beta)            :       50.999932993205 electrons
N(Total)           :      101.999865986409 electrons
E(X)               :      -67.590393039484 Eh       
E(C)               :       -4.070370704870 Eh       
E(XC)              :      -71.660763744354 Eh       
DFET-embed. en.    :        0.000000000000 Eh       

---------------
SCF CONVERGENCE
---------------

  Last Energy change         ...   -4.1842e-09  Tolerance :   1.0000e-08
  Last MAX-Density change    ...    2.2872e-06  Tolerance :   1.0000e-07
  Last RMS-Density change    ...    9.7888e-08  Tolerance :   5.0000e-09
  Last Orbital Gradient      ...    3.1104e-07  Tolerance :   1.0000e-05
  Last Orbital Rotation      ...    5.4420e-07  Tolerance :   1.0000e-05

             **** THE GBW FILE WAS UPDATED (project_8053/ensemble_345_270.gbw) ****
             **** DENSITY FILE WAS UPDATED (project_8053/ensemble_345_270.scfp) ****
             **** ENERGY FILE WAS UPDATED (project_8053/ensemble_345_270.en.tmp) ****
             **** THE GBW FILE WAS UPDATED (project_8053/ensemble_345_270.gbw) ****
             **** DENSITY FILE WAS UPDATED (project_8053/ensemble_345_270.scfp) ****
----------------
ORBITAL ENERGIES
----------------

  NO   OCC          E(Eh)            E(eV) 
   0   2.0000     -19.154645      -521.2244 
   1   2.0000     -19.152816      -521.1746 
   2   2.0000     -19.138210      -520.7772 
   3   2.0000     -19.133515      -520.6494 
   4   2.0000     -10.283123      -279.8180 
   5   2.0000     -10.247001      -278.8351 
   6   2.0000     -10.233768      -278.4750 
   7   2.0000     -10.230427      -278.3841 
   8   2.0000     -10.228316      -278.3266 
   9   2.0000     -10.227081      -278.2930 
  10   2.0000     -10.192793      -277.3600 
  11   2.0000     -10.191816      -277.3334 
  12   2.0000     -10.191604      -277.3277 
  13   2.0000      -1.041896       -28.3514 
  14   2.0000      -1.020317       -27.7642 
  15   2.0000      -0.972302       -26.4577 
  16   2.0000      -0.954328       -25.9686 
  17   2.0000      -0.791444       -21.5363 
  18   2.0000      -0.781392       -21.2628 
  19   2.0000      -0.759204       -20.6590 
  20   2.0000      -0.733908       -19.9707 
  21   2.0000      -0.674385       -18.3509 
  22   2.0000      -0.602936       -16.4067 
  23   2.0000      -0.601104       -16.3569 
  24   2.0000      -0.590789       -16.0762 
  25   2.0000      -0.564754       -15.3677 
  26   2.0000      -0.514691       -14.0055 
  27   2.0000      -0.506433       -13.7807 
  28   2.0000      -0.495722       -13.4893 
  29   2.0000      -0.486281       -13.2324 
  30   2.0000      -0.460303       -12.5255 
  31   2.0000      -0.452154       -12.3037 
  32   2.0000      -0.434214       -11.8156 
  33   2.0000      -0.424751       -11.5581 
  34   2.0000      -0.417925       -11.3723 
  35   2.0000      -0.412825       -11.2335 
  36   2.0000      -0.407913       -11.0999 
  37   2.0000      -0.391733       -10.6596 
  38   2.0000      -0.373995       -10.1769 
  39   2.0000      -0.370280       -10.0758 
  40   2.0000      -0.361155        -9.8275 
  41   2.0000      -0.351130        -9.5547 
  42   2.0000      -0.348021        -9.4701 
  43   2.0000      -0.333159        -9.0657 
  44   2.0000      -0.326787        -8.8923 
  45   2.0000      -0.308411        -8.3923 
  46   2.0000      -0.299909        -8.1609 
  47   2.0000      -0.266481        -7.2513 
  48   2.0000      -0.262210        -7.1351 
  49   2.0000      -0.256787        -6.9875 
  50   2.0000      -0.231063        -6.2875 
  51   0.0000       0.022119         0.6019 
  52   0.0000       0.068491         1.8637 
  53   0.0000       0.071403         1.9430 
  54   0.0000       0.087508         2.3812 
  55   0.0000       0.101030         2.7492 
  56   0.0000       0.105217         2.8631 
  57   0.0000       0.110866         3.0168 
  58   0.0000       0.116015         3.1569 
  59   0.0000       0.135012         3.6739 
  60   0.0000       0.138590         3.7712 
  61   0.0000       0.145495         3.9591 
  62   0.0000       0.152555         4.1512 
  63   0.0000       0.153670         4.1816 
  64   0.0000       0.156566         4.2604 
  65   0.0000       0.166077         4.5192 
  66   0.0000       0.171781         4.6744 
  67   0.0000       0.190794         5.1918 
  68   0.0000       0.193232         5.2581 
  69   0.0000       0.194413         5.2903 
  70   0.0000       0.204980         5.5778 
  71   0.0000       0.212933         5.7942 
  72   0.0000       0.217543         5.9196 
  73   0.0000       0.229671         6.2497 
  74   0.0000       0.246761         6.7147 
  75   0.0000       0.260455         7.0873 
  76   0.0000       0.261212         7.1080 
  77   0.0000       0.273023         7.4293 
  78   0.0000       0.280146         7.6232 
  79   0.0000       0.285722         7.7749 
  80   0.0000       0.295289         8.0352 
  81   0.0000       0.512726        13.9520 
  82   0.0000       0.538545        14.6545 
  83   0.0000       0.545149        14.8343 
  84   0.0000       0.551941        15.0191 
  85   0.0000       0.557583        15.1726 
  86   0.0000       0.566253        15.4085 
  87   0.0000       0.573825        15.6146 
  88   0.0000       0.581768        15.8307 
  89   0.0000       0.593041        16.1375 
  90   0.0000       0.594530        16.1780 
  91   0.0000       0.604235        16.4421 
  92   0.0000       0.616049        16.7635 
  93   0.0000       0.619563        16.8592 
  94   0.0000       0.639227        17.3942 
  95   0.0000       0.647472        17.6186 
  96   0.0000       0.662658        18.0318 
  97   0.0000       0.677578        18.4378 
  98   0.0000       0.681234        18.5373 
  99   0.0000       0.693282        18.8652 
 100   0.0000       0.729037        19.8381 
 101   0.0000       0.782768        21.3002 
 102   0.0000       0.793270        21.5860 
 103   0.0000       0.796880        21.6842 
 104   0.0000       0.809583        22.0299 
 105   0.0000       0.822455        22.3801 
 106   0.0000       0.829019        22.5588 
 107   0.0000       0.851604        23.1733 
 108   0.0000       0.861095        23.4316 
 109   0.0000       0.876014        23.8376 
 110   0.0000       0.882779        24.0216 
 111   0.0000       0.892114        24.2756 
 112   0.0000       0.900829        24.5128 
 113   0.0000       0.909347        24.7446 
 114   0.0000       0.914609        24.8878 
 115   0.0000       0.925986        25.1974 
 116   0.0000       0.943230        25.6666 
 117   0.0000       0.946749        25.7624 
 118   0.0000       0.956467        26.0268 
 119   0.0000       0.959949        26.1216 
 120   0.0000       0.963185        26.2096 
 121   0.0000       0.983272        26.7562 
 122   0.0000       1.000228        27.2176 
 123   0.0000       1.018530        27.7156 
 124   0.0000       1.037325        28.2270 
 125   0.0000       1.048225        28.5236 
 126   0.0000       1.081980        29.4422 
 127   0.0000       1.099777        29.9265 
 128   0.0000       1.116710        30.3872 
 129   0.0000       1.152160        31.3519 
 130   0.0000       1.196254        32.5517 
 131   0.0000       1.233671        33.5699 
 132   0.0000       1.259887        34.2833 
 133   0.0000       1.298107        35.3233 
 134   0.0000       1.342995        36.5448 
 135   0.0000       1.372121        37.3373 
 136   0.0000       1.392723        37.8979 
 137   0.0000       1.411461        38.4078 
 138   0.0000       1.434999        39.0483 
 139   0.0000       1.463764        39.8311 
 140   0.0000       1.518847        41.3299 
 141   0.0000       1.549571        42.1660 
 142   0.0000       1.581258        43.0282 
 143   0.0000       1.638120        44.5755 
 144   0.0000       1.751677        47.6656 
 145   0.0000       1.856068        50.5062 
 146   0.0000       1.944173        52.9036 
 147   0.0000       2.030252        55.2460 
 148   0.0000       2.122446        57.7547 

                    ********************************
                    * MULLIKEN POPULATION ANALYSIS *
                    ********************************

-----------------------
MULLIKEN ATOMIC CHARGES
-----------------------
   0 C :    0.285158
   1 C :   -0.265656
   2 C :   -0.298369
   3 C :   -0.011707
   4 O :   -0.511357
   5 H :    0.163659
   6 H :    0.150153
   7 H :    0.165691
   8 H :    0.144849
   9 H :    0.158859
  10 H :    0.136980
  11 H :    0.150336
  12 C :   -0.049155
  13 H :    0.156036
  14 H :    0.131502
  15 O :   -0.512205
  16 C :    0.079144
  17 C :    0.072760
  18 C :   -0.315804
  19 C :   -0.012615
  20 O :   -0.500401
  21 H :    0.168161
  22 H :    0.173495
  23 O :   -0.587035
  24 H :    0.156282
  25 H :    0.139291
  26 H :    0.146638
  27 H :    0.148182
  28 H :    0.337130
Sum of atomic charges:   -0.0000000

--------------------------------
MULLIKEN REDUCED ORBITAL CHARGES
--------------------------------
  0 C s       :     3.235870  s :     3.235870
      pz      :     0.784801  p :     2.478972
      px      :     0.691678
      py      :     1.002493
  1 C s       :     3.308050  s :     3.308050
      pz      :     0.981302  p :     2.957605
      px      :     1.030067
      py      :     0.946236
  2 C s       :     3.315174  s :     3.315174
      pz      :     0.911067  p :     2.983195
      px      :     1.085498
      py      :     0.986630
  3 C s       :     3.263516  s :     3.263516
      pz      :     0.934166  p :     2.748191
      px      :     1.068024
      py      :     0.746000
  4 O s       :     3.944679  s :     3.944679
      pz      :     1.317959  p :     4.566678
      px      :     1.731670
      py      :     1.517049
  5 H s       :     0.836341  s :     0.836341
  6 H s       :     0.849847  s :     0.849847
  7 H s       :     0.834309  s :     0.834309
  8 H s       :     0.855151  s :     0.855151
  9 H s       :     0.841141  s :     0.841141
 10 H s       :     0.863020  s :     0.863020
 11 H s       :     0.849664  s :     0.849664
 12 C s       :     3.293013  s :     3.293013
      pz      :     0.842680  p :     2.756142
      px      :     0.983945
      py      :     0.929517
 13 H s       :     0.843964  s :     0.843964
 14 H s       :     0.868498  s :     0.868498
 15 O s       :     3.952278  s :     3.952278
      pz      :     1.505095  p :     4.559927
      px      :     1.272220
      py      :     1.782612
 16 C s       :     3.267776  s :     3.267776
      pz      :     0.770758  p :     2.653080
      px      :     0.899646
      py      :     0.982677
 17 C s       :     3.289155  s :     3.289155
      pz      :     0.719264  p :     2.638085
      px      :     0.875681
      py      :     1.043141
 18 C s       :     3.324011  s :     3.324011
      pz      :     0.950188  p :     2.991793
      px      :     0.987136
      py      :     1.054469
 19 C s       :     3.262942  s :     3.262942
      pz      :     0.891900  p :     2.749673
      px      :     0.759378
      py      :     1.098395
 20 O s       :     3.946309  s :     3.946309
      pz      :     1.527730  p :     4.554092
      px      :     1.159852
      py      :     1.866510
 21 H s       :     0.831839  s :     0.831839
 22 H s       :     0.826505  s :     0.826505
 23 O s       :     3.953730  s :     3.953730
      pz      :     1.496434  p :     4.633305
      px      :     1.822939
      py      :     1.313933
 24 H s       :     0.843718  s :     0.843718
 25 H s       :     0.860709  s :     0.860709
 26 H s       :     0.853362  s :     0.853362
 27 H s       :     0.851818  s :     0.851818
 28 H s       :     0.662870  s :     0.662870


                     *******************************
                     * LOEWDIN POPULATION ANALYSIS *
                     *******************************

----------------------
LOEWDIN ATOMIC CHARGES
----------------------
   0 C :    0.188985
   1 C :   -0.217195
   2 C :   -0.217906
   3 C :   -0.032457
   4 O :   -0.317370
   5 H :    0.110584
   6 H :    0.117331
   7 H :    0.129143
   8 H :    0.115536
   9 H :    0.117105
  10 H :    0.097698
  11 H :    0.106559
  12 C :   -0.059357
  13 H :    0.111862
  14 H :    0.102121
  15 O :   -0.354934
  16 C :    0.018855
  17 C :    0.040252
  18 C :   -0.236621
  19 C :   -0.032876
  20 O :   -0.315013
  21 H :    0.121261
  22 H :    0.126553
  23 O :   -0.433852
  24 H :    0.122514
  25 H :    0.107057
  26 H :    0.103671
  27 H :    0.104773
  28 H :    0.275721

-------------------------------
LOEWDIN REDUCED ORBITAL CHARGES
-------------------------------
  0 C s       :     2.982142  s :     2.982142
      pz      :     0.910005  p :     2.828873
      px      :     0.832584
      py      :     1.086284
  1 C s       :     2.978512  s :     2.978512
      pz      :     1.075707  p :     3.238683
      px      :     1.106260
      py      :     1.056716
  2 C s       :     2.973075  s :     2.973075
      pz      :     1.033710  p :     3.244831
      px      :     1.132923
      py      :     1.078198
  3 C s       :     2.984411  s :     2.984411
      pz      :     1.035819  p :     3.048046
      px      :     1.123428
      py      :     0.888800
  4 O s       :     3.607559  s :     3.607559
      pz      :     1.382105  p :     4.709811
      px      :     1.762224
      py      :     1.565482
  5 H s       :     0.889416  s :     0.889416
  6 H s       :     0.882669  s :     0.882669
  7 H s       :     0.870857  s :     0.870857
  8 H s       :     0.884464  s :     0.884464
  9 H s       :     0.882895  s :     0.882895
 10 H s       :     0.902302  s :     0.902302
 11 H s       :     0.893441  s :     0.893441
 12 C s       :     3.001124  s :     3.001124
      pz      :     0.930683  p :     3.058233
      px      :     1.076295
      py      :     1.051255
 13 H s       :     0.888138  s :     0.888138
 14 H s       :     0.897879  s :     0.897879
 15 O s       :     3.655286  s :     3.655286
      pz      :     1.552985  p :     4.699648
      px      :     1.343475
      py      :     1.803188
 16 C s       :     2.967964  s :     2.967964
      pz      :     0.931177  p :     3.013181
      px      :     0.997026
      py      :     1.084977
 17 C s       :     2.973277  s :     2.973277
      pz      :     0.873040  p :     2.986470
      px      :     1.006286
      py      :     1.107145
 18 C s       :     2.981623  s :     2.981623
      pz      :     1.064005  p :     3.254998
      px      :     1.075965
      py      :     1.115028
 19 C s       :     2.981429  s :     2.981429
      pz      :     1.015509  p :     3.051447
      px      :     0.890944
      py      :     1.144994
 20 O s       :     3.604214  s :     3.604214
      pz      :     1.582136  p :     4.710799
      px      :     1.238116
      py      :     1.890547
 21 H s       :     0.878739  s :     0.878739
 22 H s       :     0.873447  s :     0.873447
 23 O s       :     3.694182  s :     3.694182
      pz      :     1.541075  p :     4.739670
      px      :     1.839249
      py      :     1.359346
 24 H s       :     0.877486  s :     0.877486
 25 H s       :     0.892943  s :     0.892943
 26 H s       :     0.896329  s :     0.896329
 27 H s       :     0.895227  s :     0.895227
 28 H s       :     0.724279  s :     0.724279


                      *****************************
                      * MAYER POPULATION ANALYSIS *
                      *****************************

  NA   - Mulliken gross atomic population
  ZA   - Total nuclear charge
  QA   - Mulliken gross atomic charge
  VA   - Mayer's total valence
  BVA  - Mayer's bonded valence
  FA   - Mayer's free valence

  ATOM       NA         ZA         QA         VA         BVA        FA
  0 C      5.7148     6.0000     0.2852     3.6329     3.6329    -0.0000
  1 C      6.2657     6.0000    -0.2657     3.7187     3.7187    -0.0000
  2 C      6.2984     6.0000    -0.2984     3.7608     3.7608    -0.0000
  3 C      6.0117     6.0000    -0.0117     3.6550     3.6550    -0.0000
  4 O      8.5114     8.0000    -0.5114     1.8065     1.8065    -0.0000
  5 H      0.8363     1.0000     0.1637     0.9236     0.9236     0.0000
  6 H      0.8498     1.0000     0.1502     0.9312     0.9312    -0.0000
  7 H      0.8343     1.0000     0.1657     0.9358     0.9358     0.0000
  8 H      0.8552     1.0000     0.1448     0.9364     0.9364    -0.0000
  9 H      0.8411     1.0000     0.1589     0.9354     0.9354    -0.0000
 10 H      0.8630     1.0000     0.1370     0.9286     0.9286    -0.0000
 11 H      0.8497     1.0000     0.1503     0.9288     0.9288    -0.0000
 12 C      6.0492     6.0000    -0.0492     3.6460     3.6460    -0.0000
 13 H      0.8440     1.0000     0.1560     0.9437     0.9437    -0.0000
 14 H      0.8685     1.0000     0.1315     0.9391     0.9391    -0.0000
 15 O      8.5122     8.0000    -0.5122     1.7959     1.7959    -0.0000
 16 C      5.9209     6.0000     0.0791     3.5611     3.5611    -0.0000
 17 C      5.9272     6.0000     0.0728     3.6369     3.6369    -0.0000
 18 C      6.3158     6.0000    -0.3158     3.7191     3.7191    -0.0000
 19 C      6.0126     6.0000    -0.0126     3.6544     3.6544    -0.0000
 20 O      8.5004     8.0000    -0.5004     1.7791     1.7791    -0.0000
 21 H      0.8318     1.0000     0.1682     0.9339     0.9339    -0.0000
 22 H      0.8265     1.0000     0.1735     0.9271     0.9271    -0.0000
 23 O      8.5870     8.0000    -0.5870     1.7684     1.7684    -0.0000
 24 H      0.8437     1.0000     0.1563     0.9379     0.9379    -0.0000
 25 H      0.8607     1.0000     0.1393     0.9414     0.9414    -0.0000
 26 H      0.8534     1.0000     0.1466     0.9252     0.9252     0.0000
 27 H      0.8518     1.0000     0.1482     0.9273     0.9273     0.0000
 28 H      0.6629     1.0000     0.3371     0.8595     0.8595    -0.0000

  Mayer bond orders larger than 0.100000
B(  0-C ,  1-C ) :   0.9362 B(  0-C ,  4-O ) :   0.8916 B(  0-C ,  5-H ) :   0.9224 
B(  0-C , 15-O ) :   0.8455 B(  1-C ,  2-C ) :   0.9543 B(  1-C ,  6-H ) :   0.9330 
B(  1-C ,  7-H ) :   0.9335 B(  2-C ,  3-C ) :   0.9520 B(  2-C ,  8-H ) :   0.9445 
B(  2-C ,  9-H ) :   0.9448 B(  3-C ,  4-O ) :   0.8335 B(  3-C , 10-H ) :   0.9315 
B(  3-C , 11-H ) :   0.9405 B( 12-C , 13-H ) :   0.8835 B( 12-C , 14-H ) :   0.9282 
B( 12-C , 15-O ) :   0.8763 B( 12-C , 16-C ) :   0.8864 B( 16-C , 17-C ) :   0.8769 
B( 16-C , 20-O ) :   0.8670 B( 16-C , 21-H ) :   0.9309 B( 17-C , 18-C ) :   0.9186 
B( 17-C , 22-H ) :   0.9305 B( 17-C , 23-O ) :   0.8884 B( 18-C , 19-C ) :   0.9295 
B( 18-C , 24-H ) :   0.9428 B( 18-C , 25-H ) :   0.9422 B( 19-C , 20-O ) :   0.8508 
B( 19-C , 26-H ) :   0.9312 B( 19-C , 27-H ) :   0.9375 B( 23-O , 28-H ) :   0.8036 


-------
TIMINGS
-------

Total SCF time: 0 days 0 hours 1 min 58 sec 

Total time                  ....     118.145 sec
Sum of individual times     ....     117.045 sec  ( 99.1%)

Fock matrix formation       ....     110.309 sec  ( 93.4%)
  XC integration            ....      10.242 sec  (  9.3% of F)
    Basis function eval.    ....       3.251 sec  ( 31.7% of XC)
    Density eval.           ....       1.421 sec  ( 13.9% of XC)
    XC-Functional eval.     ....       0.808 sec  (  7.9% of XC)
    XC-Potential eval.      ....       1.817 sec  ( 17.7% of XC)
Diagonalization             ....       0.100 sec  (  0.1%)
Density matrix formation    ....       0.007 sec  (  0.0%)
Population analysis         ....       0.022 sec  (  0.0%)
Initial guess               ....       0.908 sec  (  0.8%)
Orbital Transformation      ....       0.000 sec  (  0.0%)
Orbital Orthonormalization  ....       0.000 sec  (  0.0%)
DIIS solution               ....       0.159 sec  (  0.1%)
SOSCF solution              ....       0.080 sec  (  0.1%)
Grid generation             ....       5.461 sec  (  4.6%)

-------------------------   --------------------
FINAL SINGLE POINT ENERGY      -652.827262873411
-------------------------   --------------------

------------------------------------------------------------------------------
                         ORCA SCF GRADIENT CALCULATION
------------------------------------------------------------------------------

Gradient of the Kohn-Sham DFT energy:
Kohn-Sham wavefunction type      ... RKS
Hartree-Fock exchange scaling    ...    0.200
Number of operators              ...    1
Number of atoms                  ...   29
Basis set dimensions             ...  149
Integral neglect threshold       ... 2.5e-11
Integral primitive cutoff        ... 2.5e-12

Nuclear repulsion gradient       ... done
One Electron Gradient            ... done
Pre-screening matrix             ... done
Starting the two electron gradient:
Two electron gradient done
Exchange-correlation gradient    ... done

------------------
CARTESIAN GRADIENT
------------------

   1   C   :    0.014947579    0.007656824   -0.016998145
   2   C   :    0.013541623   -0.003654884   -0.003791391
   3   C   :    0.000091346   -0.000526738   -0.001801583
   4   C   :   -0.003450865   -0.005963611   -0.001948922
   5   O   :    0.004020103   -0.004998412    0.014226691
   6   H   :    0.005827881    0.001243667   -0.001733898
   7   H   :    0.000660512    0.003372063    0.000296220
   8   H   :    0.000680462    0.002187839   -0.001269858
   9   H   :   -0.000645761    0.000802407   -0.000016169
  10   H   :   -0.000686631    0.001340521    0.001259372
  11   H   :   -0.000286895    0.000811907    0.000353766
  12   H   :    0.000143363    0.001081634    0.000267179
  13   C   :   -0.017140166    0.005665689    0.018231445
  14   H   :   -0.000649241   -0.000328725    0.006505951
  15   H   :   -0.005664879   -0.009630902    0.013590592
  16   O   :   -0.010701312    0.009372498   -0.027799214
  17   C   :   -0.013307910   -0.017317850    0.010988850
  18   C   :   -0.007071003   -0.024814033   -0.025764303
  19   C   :    0.004719714    0.004711394    0.002309635
  20   C   :    0.002151668   -0.001570510   -0.002313326
  21   O   :   -0.001540579    0.003206081   -0.003290469
  22   H   :    0.001719686    0.001695979   -0.000579090
  23   H   :   -0.005329838   -0.002989167   -0.010475582
  24   O   :    0.011209653   -0.043596345    0.022780645
  25   H   :   -0.001695971   -0.000654386   -0.000182108
  26   H   :   -0.000111714    0.001341264   -0.001476478
  27   H   :    0.000038068    0.000964590   -0.000041616
  28   H   :    0.000670268    0.000452447    0.000091307
  29   H   :    0.007860839    0.070138759    0.008580499

Difference to translation invariance:
           :    0.0000000000   -0.0000000001   -0.0000000000

Norm of the cartesian gradient     ...    0.1136042625
RMS gradient                       ...    0.0121796554
MAX gradient                       ...    0.0701387594

-------
TIMINGS
-------

Total SCF gradient time            ...       30.939 sec

One electron gradient       ....       0.326 sec  (  1.1%)
Prescreening matrices       ....       0.060 sec  (  0.2%)
Two electron gradient       ....      18.890 sec  ( 61.1%)
XC gradient                 ....      11.523 sec  ( 37.2%)
------------------------------------------------------------------------------
                         ORCA GEOMETRY RELAXATION STEP
------------------------------------------------------------------------------

Reading the OPT-File                    .... done
Getting information on internals        .... done
Copying old internal coords+grads       .... done
Making the new internal coordinates     .... (new redundants).... done
Validating the new internal coordinates .... (new redundants).... done
Calculating the B-matrix                .... done
Calculating the G,G- and P matrices     .... done
Transforming gradient to internals      .... done
Projecting the internal gradient        .... done
Number of atoms                         ....  29
Number of internal coordinates          .... 172
Current Energy                          ....  -652.827262873 Eh
Current gradient norm                   ....     0.113604262 Eh/bohr
Maximum allowed component of the step   ....  0.300
Current trust radius                    ....  0.300
Evaluating the initial hessian          ....  (Almloef) done
Projecting the Hessian                  .... done
Forming the augmented Hessian           .... done
Diagonalizing the augmented Hessian     .... done
Last element of RFO vector              ....  0.939497754
Lowest eigenvalues of augmented Hessian:
 -0.037842745  0.007851155  0.032977452  0.033071903  0.036772994
Length of the computed step             ....  0.364615095
Warning: the length of the step is outside the trust region - taking restricted step instead
The input lambda is                     ....    -0.037843
   iter:   1  x=   -0.072957  g=    1.222971 f(x)=     0.042944
   iter:   2  x=   -0.088973  g=    0.690875 f(x)=     0.011065
   iter:   3  x=   -0.090746  g=    0.570962 f(x)=     0.001012
   iter:   4  x=   -0.090764  g=    0.559857 f(x)=     0.000010
   iter:   5  x=   -0.090764  g=    0.559748 f(x)=     0.000000
   iter:   6  x=   -0.090764  g=    0.559748 f(x)=     0.000000
The output lambda is                    ....    -0.090764 (6 iterations)
The final length of the internal step   ....  0.300000000
Converting the step to cartesian space:
 Initial RMS(Int)=    0.0228747855
Transforming coordinates:
[...]
  29   2.0000      -0.494175       -13.4472 
  30   2.0000      -0.467622       -12.7246 
  31   2.0000      -0.456570       -12.4239 
  32   2.0000      -0.438711       -11.9379 
  33   2.0000      -0.429840       -11.6965 
  34   2.0000      -0.422615       -11.4999 
  35   2.0000      -0.415873       -11.3165 
  36   2.0000      -0.409200       -11.1349 
  37   2.0000      -0.395962       -10.7747 
  38   2.0000      -0.374146       -10.1810 
  39   2.0000      -0.370842       -10.0911 
  40   2.0000      -0.359275        -9.7764 
  41   2.0000      -0.351850        -9.5743 
  42   2.0000      -0.347920        -9.4674 
  43   2.0000      -0.331477        -9.0199 
  44   2.0000      -0.326536        -8.8855 
  45   2.0000      -0.310937        -8.4610 
  46   2.0000      -0.298378        -8.1193 
  47   2.0000      -0.267783        -7.2867 
  48   2.0000      -0.262597        -7.1456 
  49   2.0000      -0.258870        -7.0442 
  50   2.0000      -0.227786        -6.1984 
  51   0.0000       0.052942         1.4406 
  52   0.0000       0.077394         2.1060 
  53   0.0000       0.087036         2.3684 
  54   0.0000       0.093289         2.5385 
  55   0.0000       0.105924         2.8823 
  56   0.0000       0.110024         2.9939 
  57   0.0000       0.117713         3.2031 
  58   0.0000       0.133141         3.6229 
  59   0.0000       0.139102         3.7852 
  60   0.0000       0.143804         3.9131 
  61   0.0000       0.155747         4.2381 
  62   0.0000       0.157172         4.2769 
  63   0.0000       0.159081         4.3288 
  64   0.0000       0.161930         4.4063 
  65   0.0000       0.175713         4.7814 
  66   0.0000       0.181451         4.9375 
  67   0.0000       0.189396         5.1537 
  68   0.0000       0.198062         5.3895 
  69   0.0000       0.204932         5.5765 
  70   0.0000       0.214633         5.8405 
  71   0.0000       0.218816         5.9543 
  72   0.0000       0.234509         6.3813 
  73   0.0000       0.246884         6.7181 
  74   0.0000       0.251258         6.8371 
  75   0.0000       0.266752         7.2587 
  76   0.0000       0.274516         7.4699 
  77   0.0000       0.280162         7.6236 
  78   0.0000       0.286377         7.7927 
  79   0.0000       0.297804         8.1037 
  80   0.0000       0.307689         8.3727 
  81   0.0000       0.514694        14.0055 
  82   0.0000       0.540040        14.6952 
  83   0.0000       0.545719        14.8498 
  84   0.0000       0.551093        14.9960 
  85   0.0000       0.561822        15.2880 
  86   0.0000       0.565951        15.4003 
  87   0.0000       0.576508        15.6876 
  88   0.0000       0.588693        16.0192 
  89   0.0000       0.593762        16.1571 
  90   0.0000       0.598666        16.2905 
  91   0.0000       0.611257        16.6331 
  92   0.0000       0.619019        16.8444 
  93   0.0000       0.621410        16.9094 
  94   0.0000       0.643879        17.5208 
  95   0.0000       0.647697        17.6247 
  96   0.0000       0.669065        18.2062 
  97   0.0000       0.674273        18.3479 
  98   0.0000       0.686200        18.6724 
  99   0.0000       0.702298        19.1105 
 100   0.0000       0.738779        20.1032 
 101   0.0000       0.786298        21.3963 
 102   0.0000       0.803716        21.8702 
 103   0.0000       0.811204        22.0740 
 104   0.0000       0.821587        22.3565 
 105   0.0000       0.828318        22.5397 
 106   0.0000       0.847349        23.0575 
 107   0.0000       0.854412        23.2497 
 108   0.0000       0.861961        23.4552 
 109   0.0000       0.878557        23.9068 
 110   0.0000       0.885608        24.0986 
 111   0.0000       0.889518        24.2050 
 112   0.0000       0.900227        24.4964 
 113   0.0000       0.908096        24.7106 
 114   0.0000       0.916608        24.9422 
 115   0.0000       0.928195        25.2575 
 116   0.0000       0.943489        25.6736 
 117   0.0000       0.951511        25.8919 
 118   0.0000       0.952553        25.9203 
 119   0.0000       0.965239        26.2655 
 120   0.0000       0.968911        26.3654 
 121   0.0000       0.982298        26.7297 
 122   0.0000       1.005307        27.3558 
 123   0.0000       1.019713        27.7478 
 124   0.0000       1.023783        27.8585 
 125   0.0000       1.048064        28.5193 
 126   0.0000       1.088708        29.6253 
 127   0.0000       1.108334        30.1593 
 128   0.0000       1.123181        30.5633 
 129   0.0000       1.148265        31.2459 
 130   0.0000       1.196018        32.5453 
 131   0.0000       1.241805        33.7912 
 132   0.0000       1.271939        34.6112 
 133   0.0000       1.304813        35.5058 
 134   0.0000       1.319394        35.9025 
 135   0.0000       1.375122        37.4190 
 136   0.0000       1.392076        37.8803 
 137   0.0000       1.420345        38.6496 
 138   0.0000       1.446148        39.3517 
 139   0.0000       1.498012        40.7630 
 140   0.0000       1.527971        41.5782 
 141   0.0000       1.577124        42.9157 
 142   0.0000       1.605717        43.6938 
 143   0.0000       1.683260        45.8038 
 144   0.0000       1.773009        48.2460 
 145   0.0000       1.888629        51.3922 
 146   0.0000       1.970432        53.6182 
 147   0.0000       2.030221        55.2451 
 148   0.0000       2.157789        58.7164 

                    ********************************
                    * MULLIKEN POPULATION ANALYSIS *
                    ********************************

-----------------------
MULLIKEN ATOMIC CHARGES
-----------------------
   0 C :    0.294708
   1 C :   -0.256731
   2 C :   -0.303431
   3 C :   -0.015809
   4 O :   -0.513258
   5 H :    0.158904
   6 H :    0.143693
   7 H :    0.163260
   8 H :    0.145899
   9 H :    0.154447
  10 H :    0.141166
  11 H :    0.151852
  12 C :   -0.027242
  13 H :    0.149211
  14 H :    0.134158
  15 O :   -0.522581
  16 C :    0.088074
  17 C :    0.078875
  18 C :   -0.320812
  19 C :   -0.009676
  20 O :   -0.505848
  21 H :    0.166486
  22 H :    0.170894
  23 O :   -0.597927
  24 H :    0.156666
  25 H :    0.129308
  26 H :    0.144503
  27 H :    0.147896
  28 H :    0.353316
Sum of atomic charges:   -0.0000000

--------------------------------
MULLIKEN REDUCED ORBITAL CHARGES
--------------------------------
  0 C s       :     3.196113  s :     3.196113
      pz      :     0.808623  p :     2.509179
      px      :     0.680010
      py      :     1.020547
  1 C s       :     3.304232  s :     3.304232
      pz      :     0.968100  p :     2.952498
      px      :     1.044026
      py      :     0.940372
  2 C s       :     3.315296  s :     3.315296
      pz      :     0.920951  p :     2.988135
      px      :     1.078337
      py      :     0.988847
  3 C s       :     3.267838  s :     3.267838
      pz      :     0.945845  p :     2.747971
      px      :     1.059502
      py      :     0.742624
  4 O s       :     3.941909  s :     3.941909
      pz      :     1.366912  p :     4.571349
      px      :     1.685786
      py      :     1.518651
  5 H s       :     0.841096  s :     0.841096
  6 H s       :     0.856307  s :     0.856307
  7 H s       :     0.836740  s :     0.836740
  8 H s       :     0.854101  s :     0.854101
  9 H s       :     0.845553  s :     0.845553
 10 H s       :     0.858834  s :     0.858834
 11 H s       :     0.848148  s :     0.848148
 12 C s       :     3.258246  s :     3.258246
      pz      :     0.833009  p :     2.768996
      px      :     0.980547
      py      :     0.955439
 13 H s       :     0.850789  s :     0.850789
 14 H s       :     0.865842  s :     0.865842
 15 O s       :     3.921282  s :     3.921282
      pz      :     1.521263  p :     4.601299
      px      :     1.286222
      py      :     1.793813
 16 C s       :     3.256703  s :     3.256703
      pz      :     0.772779  p :     2.655223
      px      :     0.900611
      py      :     0.981833
 17 C s       :     3.250141  s :     3.250141
      pz      :     0.714886  p :     2.670983
      px      :     0.883189
      py      :     1.072908
 18 C s       :     3.322535  s :     3.322535
      pz      :     0.957148  p :     2.998278
      px      :     0.992173
      py      :     1.048957
 19 C s       :     3.263429  s :     3.263429
      pz      :     0.900058  p :     2.746246
      px      :     0.749589
      py      :     1.096600
 20 O s       :     3.945948  s :     3.945948
      pz      :     1.530590  p :     4.559900
      px      :     1.162694
      py      :     1.866616
 21 H s       :     0.833514  s :     0.833514
 22 H s       :     0.829106  s :     0.829106
 23 O s       :     3.919987  s :     3.919987
      pz      :     1.455745  p :     4.677940
      px      :     1.822591
      py      :     1.399604
 24 H s       :     0.843334  s :     0.843334
 25 H s       :     0.870692  s :     0.870692
 26 H s       :     0.855497  s :     0.855497
 27 H s       :     0.852104  s :     0.852104
 28 H s       :     0.646684  s :     0.646684


                     *******************************
                     * LOEWDIN POPULATION ANALYSIS *
                     *******************************

----------------------
LOEWDIN ATOMIC CHARGES
----------------------
   0 C :    0.180182
   1 C :   -0.216955
   2 C :   -0.218838
   3 C :   -0.031760
   4 O :   -0.321377
   5 H :    0.103807
   6 H :    0.113261
   7 H :    0.127249
   8 H :    0.116442
   9 H :    0.114906
  10 H :    0.100330
  11 H :    0.107496
  12 C :   -0.054067
  13 H :    0.107582
  14 H :    0.102025
  15 O :   -0.327724
  16 C :    0.011302
  17 C :    0.033244
  18 C :   -0.241445
  19 C :   -0.030354
  20 O :   -0.316086
  21 H :    0.119196
  22 H :    0.120330
  23 O :   -0.406864
  24 H :    0.122249
  25 H :    0.102167
  26 H :    0.102924
  27 H :    0.104978
  28 H :    0.275800

-------------------------------
LOEWDIN REDUCED ORBITAL CHARGES
-------------------------------
  0 C s       :     2.953821  s :     2.953821
      pz      :     0.927101  p :     2.865997
      px      :     0.844302
      py      :     1.094594
  1 C s       :     2.979053  s :     2.979053
      pz      :     1.071404  p :     3.237902
      px      :     1.111880
      py      :     1.054618
  2 C s       :     2.971030  s :     2.971030
      pz      :     1.040521  p :     3.247808
      px      :     1.127939
      py      :     1.079347
  3 C s       :     2.987059  s :     2.987059
      pz      :     1.043002  p :     3.044701
      px      :     1.118691
      py      :     0.883008
  4 O s       :     3.602161  s :     3.602161
      pz      :     1.429178  p :     4.719216
      px      :     1.723635
      py      :     1.566402
  5 H s       :     0.896193  s :     0.896193
  6 H s       :     0.886739  s :     0.886739
  7 H s       :     0.872751  s :     0.872751
  8 H s       :     0.883558  s :     0.883558
  9 H s       :     0.885094  s :     0.885094
 10 H s       :     0.899670  s :     0.899670
 11 H s       :     0.892504  s :     0.892504
 12 C s       :     2.975573  s :     2.975573
      pz      :     0.945583  p :     3.078495
      px      :     1.063097
      py      :     1.069815
 13 H s       :     0.892418  s :     0.892418
 14 H s       :     0.897975  s :     0.897975
 15 O s       :     3.578862  s :     3.578862
      pz      :     1.574659  p :     4.748861
      px      :     1.361531
      py      :     1.812671
 16 C s       :     2.964732  s :     2.964732
      pz      :     0.930599  p :     3.023966
      px      :     1.003545
      py      :     1.089822
 17 C s       :     2.952037  s :     2.952037
      pz      :     0.886993  p :     3.014719
      px      :     1.011268
      py      :     1.116458
 18 C s       :     2.983366  s :     2.983366
      pz      :     1.066535  p :     3.258080
      px      :     1.078681
      py      :     1.112864
 19 C s       :     2.980774  s :     2.980774
      pz      :     1.022765  p :     3.049580
      px      :     0.881053
      py      :     1.145762
 20 O s       :     3.602330  s :     3.602330
      pz      :     1.582077  p :     4.713756
      px      :     1.240399
      py      :     1.891280
 21 H s       :     0.880804  s :     0.880804
 22 H s       :     0.879670  s :     0.879670
 23 O s       :     3.608950  s :     3.608950
      pz      :     1.505002  p :     4.797914
      px      :     1.840749
      py      :     1.452163
 24 H s       :     0.877751  s :     0.877751
 25 H s       :     0.897833  s :     0.897833
 26 H s       :     0.897076  s :     0.897076
 27 H s       :     0.895022  s :     0.895022
 28 H s       :     0.724200  s :     0.724200


                      *****************************
                      * MAYER POPULATION ANALYSIS *
                      *****************************

  NA   - Mulliken gross atomic population
  ZA   - Total nuclear charge
  QA   - Mulliken gross atomic charge
  VA   - Mayer's total valence
  BVA  - Mayer's bonded valence
  FA   - Mayer's free valence

  ATOM       NA         ZA         QA         VA         BVA        FA
  0 C      5.7053     6.0000     0.2947     3.6478     3.6478    -0.0000
  1 C      6.2567     6.0000    -0.2567     3.7172     3.7172    -0.0000
  2 C      6.3034     6.0000    -0.3034     3.7643     3.7643    -0.0000
  3 C      6.0158     6.0000    -0.0158     3.6565     3.6565    -0.0000
  4 O      8.5133     8.0000    -0.5133     1.7938     1.7938    -0.0000
  5 H      0.8411     1.0000     0.1589     0.9250     0.9250     0.0000
  6 H      0.8563     1.0000     0.1437     0.9340     0.9340     0.0000
  7 H      0.8367     1.0000     0.1633     0.9383     0.9383    -0.0000
  8 H      0.8541     1.0000     0.1459     0.9369     0.9369    -0.0000
  9 H      0.8456     1.0000     0.1544     0.9354     0.9354     0.0000
 10 H      0.8588     1.0000     0.1412     0.9278     0.9278    -0.0000
 11 H      0.8481     1.0000     0.1519     0.9288     0.9288    -0.0000
 12 C      6.0272     6.0000    -0.0272     3.6315     3.6315    -0.0000
 13 H      0.8508     1.0000     0.1492     0.9453     0.9453     0.0000
 14 H      0.8658     1.0000     0.1342     0.9388     0.9388     0.0000
 15 O      8.5226     8.0000    -0.5226     1.7525     1.7525    -0.0000
 16 C      5.9119     6.0000     0.0881     3.5482     3.5482     0.0000
 17 C      5.9211     6.0000     0.0789     3.6495     3.6495    -0.0000
 18 C      6.3208     6.0000    -0.3208     3.7264     3.7264    -0.0000
 19 C      6.0097     6.0000    -0.0097     3.6649     3.6649    -0.0000
 20 O      8.5058     8.0000    -0.5058     1.7797     1.7797    -0.0000
 21 H      0.8335     1.0000     0.1665     0.9330     0.9330    -0.0000
 22 H      0.8291     1.0000     0.1709     0.9236     0.9236    -0.0000
 23 O      8.5979     8.0000    -0.5979     1.7526     1.7526    -0.0000
 24 H      0.8433     1.0000     0.1567     0.9366     0.9366     0.0000
 25 H      0.8707     1.0000     0.1293     0.9418     0.9418     0.0000
 26 H      0.8555     1.0000     0.1445     0.9254     0.9254     0.0000
 27 H      0.8521     1.0000     0.1479     0.9273     0.9273     0.0000
 28 H      0.6467     1.0000     0.3533     0.8394     0.8394    -0.0000

  Mayer bond orders larger than 0.100000
B(  0-C ,  1-C ) :   0.9378 B(  0-C ,  4-O ) :   0.9019 B(  0-C ,  5-H ) :   0.9246 
B(  0-C , 15-O ) :   0.8471 B(  1-C ,  2-C ) :   0.9532 B(  1-C ,  6-H ) :   0.9366 
B(  1-C ,  7-H ) :   0.9354 B(  2-C ,  3-C ) :   0.9536 B(  2-C ,  8-H ) :   0.9449 
B(  2-C ,  9-H ) :   0.9456 B(  3-C ,  4-O ) :   0.8311 B(  3-C , 10-H ) :   0.9330 
B(  3-C , 11-H ) :   0.9408 B( 12-C , 13-H ) :   0.8947 B( 12-C , 14-H ) :   0.9378 
B( 12-C , 15-O ) :   0.8615 B( 12-C , 16-C ) :   0.8878 B( 16-C , 17-C ) :   0.8722 
B( 16-C , 20-O ) :   0.8677 B( 16-C , 21-H ) :   0.9301 B( 17-C , 18-C ) :   0.9237 
B( 17-C , 22-H ) :   0.9315 B( 17-C , 23-O ) :   0.8968 B( 18-C , 19-C ) :   0.9373 
B( 18-C , 24-H ) :   0.9419 B( 18-C , 25-H ) :   0.9424 B( 19-C , 20-O ) :   0.8517 
B( 19-C , 26-H ) :   0.9317 B( 19-C , 27-H ) :   0.9378 B( 23-O , 28-H ) :   0.7990 


-------
TIMINGS
-------

Total SCF time: 0 days 0 hours 1 min 31 sec 

Total time                  ....      91.423 sec
Sum of individual times     ....      90.076 sec  ( 98.5%)

Fock matrix formation       ....      85.189 sec  ( 93.2%)
  XC integration            ....      34.571 sec  ( 40.6% of F)
    Basis function eval.    ....       1.589 sec  (  4.6% of XC)
    Density eval.           ....       0.710 sec  (  2.1% of XC)
    XC-Functional eval.     ....       0.377 sec  (  1.1% of XC)
    XC-Potential eval.      ....       0.915 sec  (  2.6% of XC)
Diagonalization             ....       0.008 sec  (  0.0%)
Density matrix formation    ....       0.004 sec  (  0.0%)
Population analysis         ....       0.053 sec  (  0.1%)
Initial guess               ....       0.035 sec  (  0.0%)
Orbital Transformation      ....       0.000 sec  (  0.0%)
Orbital Orthonormalization  ....       0.003 sec  (  0.0%)
DIIS solution               ....       0.001 sec  (  0.0%)
SOSCF solution              ....       0.090 sec  (  0.1%)
Grid generation             ....       4.696 sec  (  5.1%)

-------------------------   --------------------
FINAL SINGLE POINT ENERGY      -652.855920227451
-------------------------   --------------------

                                *** OPTIMIZATION RUN DONE ***

                            ***************************************
                            *     ORCA property calculations      *
                            ***************************************

                                    ---------------------
                                    Active property flags
                                    ---------------------
   (+) Dipole Moment


------------------------------------------------------------------------------
                       ORCA ELECTRIC PROPERTIES CALCULATION
------------------------------------------------------------------------------

Dipole Moment Calculation                       ... on
Quadrupole Moment Calculation                   ... off
Polarizability Calculation                      ... off
GBWName                                         ... project_8053/ensemble_345_270.gbw
Electron density file                           ... project_8053/ensemble_345_270.scfp
The origin for moment calculation is the CENTER OF MASS  = (-43.060916, 48.269996 89.785885)

-------------
DIPOLE MOMENT
-------------
                                X             Y             Z
Electronic contribution:     -0.00560      -4.01686      -1.38584
Nuclear contribution   :     -0.21762       5.11367       1.97034
                        -----------------------------------------
Total Dipole Moment    :     -0.22323       1.09682       0.58450
                        -----------------------------------------
Magnitude (a.u.)       :      1.26272
Magnitude (Debye)      :      3.20959



--------------------
Rotational spectrum 
--------------------
 
Rotational constants in cm-1:     0.054092     0.013941     0.012271 
Rotational constants in MHz :  1621.648935   417.935902   367.867555 

 Dipole components along the rotational axes: 
x,y,z [a.u.] :     0.301505     0.319206     1.183924 
x,y,z [Debye]:     0.766364     0.811357     3.009296 

 

Timings for individual modules:

Sum of individual times         ...     1035.213 sec (=  17.254 min)
GTO integral calculation        ...        4.342 sec (=   0.072 min)   0.4 %
SCF iterations                  ...      778.939 sec (=  12.982 min)  75.2 %
SCF Gradient evaluation         ...      250.055 sec (=   4.168 min)  24.2 %
Geometry relaxation             ...        1.877 sec (=   0.031 min)   0.2 %
                             ****ORCA TERMINATED NORMALLY****
TOTAL RUN TIME: 0 days 0 hours 17 minutes 19 seconds 160 msec
